/home/jotelha/ws/2025-12-01-pama-aa/venv/bin/polyply gen_coords -p system.top -o default.gro -name PAMA_BLOCK -dens 300
4190
    1CH3n    C1    1   2.011   1.997   2.598
    1CH3n    H2    2   2.010   2.027   2.629
    1CH3n    H3    3   1.993   2.013   2.562
    1CH3n    H4    4   1.987   1.963   2.612
    2MMA    H00    5   2.476   1.782   2.635
    2MMA    C01    6   2.458   1.821   2.639
    2MMA    H02    7   2.431   1.822   2.672
    2MMA    H03    8   2.489   1.850   2.646
    2MMA    O04    9   2.430   1.834   2.591
    2MMA    C05   10   2.428   1.885   2.577
    2MMA    O06   11   2.448   1.921   2.604
    2MMA    C07   12   2.396   1.894   2.531
    2MMA    C08   13   2.347   1.872   2.529
    2MMA    H09   14   2.313   1.895   2.541
    2MMA    H0A   15   2.340   1.837   2.506
    2MMA    C0B   16   2.418   1.925   2.487
    2MMA    H0C   17   2.461   1.931   2.493
    2MMA    H0D   18   2.413   1.904   2.449
    2MMA    H0E   19   2.399   1.964   2.484
    3MMA    H00   20   1.948   2.006   2.208
    3MMA    C01   21   1.967   1.970   2.192
    3MMA    H02   22   1.945   1.956   2.158
    3MMA    H03   23   2.007   1.980   2.180
    3MMA    O04   24   1.968   1.930   2.233
    3MMA    C05   25   2.009   1.896   2.231
    3MMA    O06   26   2.044   1.897   2.198
    3MMA    C07   27   2.003   1.855   2.271
    3MMA    C08   28   1.957   1.829   2.275
    3MMA    H09   29   1.952   1.791   2.255
    3MMA    H0A   30   1.929   1.838   2.306
    3MMA    C0B   31   2.048   1.845   2.307
    3MMA    H0C   32   2.078   1.876   2.303
    3MMA    H0D   33   2.035   1.844   2.348
    3MMA    H0E   34   2.067   1.807   2.297
    4MMA    H00   35   1.680   1.475   2.310
    4MMA    C01   36   1.680   1.516   2.325
    4MMA    H02   37   1.709   1.518   2.357
    4MMA    H03   38   1.693   1.543   2.294
    4MMA    O04   39   1.629   1.530   2.344
    4MMA    C05   40   1.615   1.581   2.341
    4MMA    O06   41   1.645   1.615   2.324
    4MMA    C07   42   1.565   1.591   2.366
    4MMA    C08   43   1.555   1.572   2.415
    4MMA    H09   44   1.561   1.598   2.449
    4MMA    H0A   45   1.531   1.538   2.420
    4MMA    C0B   46   1.524   1.620   2.335
    4MMA    H0C   47   1.537   1.624   2.293
    4MMA    H0D   48   1.486   1.599   2.336
    4MMA    H0E   49   1.519   1.660   2.351
    5MMA    H00   50   1.270   1.390   2.858
    5MMA    C01   51   1.259   1.419   2.826
    5MMA    H02   52   1.219   1.433   2.834
    5MMA    H03   53   1.286   1.452   2.828
    5MMA    O04   54   1.262   1.394   2.775
    5MMA    C05   55   1.275   1.425   2.734
    5MMA    O06   56   1.283   1.472   2.739
    5MMA    C07   57   1.272   1.396   2.685
    5MMA    C08   58   1.229   1.368   2.674
    5MMA    H09   59   1.197   1.385   2.650
    5MMA    H0A   60   1.229   1.325   2.677
    5MMA    C0B   61   1.318   1.399   2.649
    5MMA    H0C   62   1.353   1.417   2.669
    5MMA    H0D   63   1.330   1.359   2.636
    5MMA    H0E   64   1.309   1.423   2.614
    6MMA    H00   65   0.911   1.132   2.423
    6MMA    C01   66   0.887   1.153   2.454
    6MMA    H02   67   0.899   1.195   2.455
    6MMA    H03   68   0.845   1.150   2.443
    6MMA    O04   69   0.896   1.129   2.505
    6MMA    C05   70   0.856   1.130   2.539
    6MMA    O06   71   0.813   1.151   2.529
    6MMA    C07   72   0.871   1.109   2.590
    6MMA    C08   73   0.916   1.127   2.613
    6MMA    H09   74   0.914   1.159   2.642
    6MMA    H0A   75   0.951   1.103   2.613
    6MMA    C0B   76   0.838   1.068   2.614
    6MMA    H0C   77   0.808   1.053   2.585
    6MMA    H0D   78   0.862   1.034   2.627
    6MMA    H0E   79   0.816   1.084   2.648
    7MMA    H00   80   1.100   0.931   3.103
    7MMA    C01   81   1.081   0.971   3.099
    7MMA    H02   82   1.076   0.988   3.139
    7MMA    H03   83   1.106   0.996   3.076
    7MMA    O04   84   1.030   0.966   3.074
    7MMA    C05   85   1.014   1.007   3.045
    7MMA    O06   86   1.040   1.047   3.039
    7MMA    C07   87   0.961   0.999   3.026
    7MMA    C08   88   0.923   0.984   3.060
    7MMA    H09   89   0.897   1.014   3.078
    7MMA    H0A   90   0.909   0.944   3.061
    7MMA    C0B   91   0.951   1.006   2.968
    7MMA    H0C   92   0.988   1.009   2.946
    7MMA    H0D   93   0.928   0.973   2.952
    7MMA    H0E   94   0.928   1.042   2.961
    8MMA    H00   95   0.469   0.970   3.341
    8MMA    C01   96   0.463   0.935   3.315
    8MMA    H02   97   0.437   0.908   3.336
    8MMA    H03   98   0.443   0.949   3.279
    8MMA    O04   99   0.512   0.911   3.302
    8MMA    C05  100   0.515   0.886   3.255
    8MMA    O06  101   0.478   0.885   3.224
    8MMA    C07  102   0.564   0.859   3.249
    8MMA    C08  103   0.581   0.827   3.287
    8MMA    H09  104   0.574   0.785   3.285
    8MMA    H0A  105   0.612   0.839   3.314
    8MMA    C0B  106   0.595   0.869   3.200
    8MMA    H0C  107   0.579   0.904   3.178
    8MMA    H0D  108   0.637   0.878   3.210
    8MMA    H0E  109   0.594   0.835   3.174
    9MMA    H00  110   0.691   0.510   3.298
    9MMA    C01  111   0.712   0.472   3.296
    9MMA    H02  112   0.685   0.442   3.281
    9MMA    H03  113   0.745   0.476   3.268
    9MMA    O04  114   0.732   0.457   3.347
    9MMA    C05  115   0.776   0.429   3.348
    9MMA    O06  116   0.800   0.415   3.308
    9MMA    C07  117   0.789   0.413   3.401
    9MMA    C08  118   0.752   0.390   3.431
    9MMA    H09  119   0.749   0.347   3.433
    9MMA    H0A  120   0.732   0.412   3.462
    9MMA    C0B  121   0.843   0.423   3.421
    9MMA    H0C  122   0.865   0.450   3.394
    9MMA    H0D  123   0.842   0.442   3.460
    9MMA    H0E  124   0.866   0.386   3.424
   10MMA    H00  125   0.673  -0.026   3.822
   10MMA    C01  126   0.682   0.015   3.810
   10MMA    H02  127   0.667   0.042   3.840
   10MMA    H03  128   0.724   0.020   3.806
   10MMA    O04  129   0.656   0.026   3.760
   10MMA    C05  130   0.680   0.061   3.728
   10MMA    O06  131   0.722   0.083   3.740
   10MMA    C07  132   0.649   0.072   3.682
   10MMA    C08  133   0.597   0.085   3.688
   10MMA    H09  134   0.585   0.126   3.689
   10MMA    H0A  135   0.567   0.056   3.679
   10MMA    C0B  136   0.674   0.067   3.629
   10MMA    H0C  137   0.714   0.048   3.633
   10MMA    H0D  138   0.650   0.044   3.603
   10MMA    H0E  139   0.680   0.107   3.612
   11MMA    H00  140   0.291   0.094   3.463
   11MMA    C01  141   0.250   0.107   3.456
   11MMA    H02  142   0.245   0.115   3.413
   11MMA    H03  143   0.223   0.075   3.466
   11MMA    O04  144   0.238   0.153   3.487
   11MMA    C05  145   0.188   0.159   3.502
   11MMA    O06  146   0.152   0.128   3.491
   11MMA    C07  147   0.180   0.209   3.529
   11MMA    C08  148   0.198   0.253   3.506
   11MMA    H09  149   0.171   0.278   3.483
   11MMA    H0A  150   0.234   0.272   3.520
   11MMA    C0B  151   0.154   0.208   3.582
   11MMA    H0C  152   0.151   0.167   3.597
   11MMA    H0D  153   0.177   0.231   3.610
   11MMA    H0E  154   0.114   0.225   3.579
   12MMA    H00  155   0.251   4.939   3.099
   12MMA    C01  156   0.257   4.922   3.139
   12MMA    H02  157   0.299   4.917   3.146
   12MMA    H03  158   0.241   4.949   3.168
   12MMA    O04  159   0.230   4.872   3.142
   12MMA    C05  160   0.212   4.858   3.190
   12MMA    O06  161   0.217   4.885   3.229
   12MMA    C07  162   0.190   4.805   3.189
   12MMA    C08  163   0.219   4.766   3.168
   12MMA    H09  164   0.243   4.740   3.194
   12MMA    H0A  165   0.209   4.750   3.129
   12MMA    C0B  166   0.136   4.797   3.211
   12MMA    H0C  167   0.116   4.836   3.218
   12MMA    H0D  168   0.112   4.774   3.183
   12MMA    H0E  169   0.138   4.776   3.248
   13MMA    H00  170   0.004   0.180   3.150
   13MMA    C01  171   0.010   0.221   3.137
   13MMA    H02  172   0.009   0.223   3.094
   13MMA    H03  173  -0.023   0.245   3.152
   13MMA    O04  174   0.059   0.241   3.156
   13MMA    C05  175   0.061   0.293   3.167
   13MMA    O06  176   0.024   0.323   3.161
   13MMA    C07  177   0.114   0.309   3.182
   13MMA    C08  178   0.155   0.295   3.151
   13MMA    H09  179   0.170   0.322   3.121
   13MMA    H0A  180   0.181   0.263   3.164
   13MMA    C0B  181   0.120   0.340   3.232
   13MMA    H0C  182   0.083   0.340   3.255
   13MMA    H0D  183   0.152   0.323   3.256
   13MMA    H0E  184   0.131   0.381   3.222
   14MMA    H00  185   4.906  -0.053   2.789
   14MMA    C01  186   4.935  -0.021   2.794
   14MMA    H02  187   4.944  -0.016   2.837
   14MMA    H03  188   4.972  -0.032   2.774
   14MMA    O04  189   4.915   0.028   2.773
   14MMA    C05  190   4.950   0.062   2.753
   14MMA    O06  191   4.998   0.053   2.753
   14MMA    C07  192   4.925   0.110   2.736
   14MMA    C08  193   4.893   0.135   2.770
   14MMA    H09  194   4.908   0.167   2.795
   14MMA    H0A  195   4.850   0.133   2.764
   14MMA    C0B  196   4.937   0.130   2.682
   14MMA    H0C  197   4.957   0.099   2.658
   14MMA    H0D  198   4.900   0.140   2.662
   14MMA    H0E  199   4.962   0.165   2.684
   15MMA    H00  200   4.495   5.178   2.492
   15MMA    C01  201   4.481   5.151   2.524
   15MMA    H02  202   4.502   5.161   2.561
   15MMA    H03  203   4.439   5.157   2.530
   15MMA    O04  204   4.491   5.097   2.510
   15MMA    C05  205   4.458   5.061   2.528
   15MMA    O06  206   4.420   5.072   2.557
   15MMA    C07  207   4.474   5.008   2.515
   15MMA    C08  208   4.525   4.993   2.525
   15MMA    H09  209   4.534   4.972   2.561
   15MMA    H0A  210   4.553   4.991   2.493
   15MMA    C0B  211   4.435   4.972   2.489
   15MMA    H0C  212   4.400   4.994   2.477
   15MMA    H0D  213   4.453   4.953   2.454
   15MMA    H0E  214   4.423   4.941   2.517
   16MMA    H00  215   4.386   4.422   2.473
   16MMA    C01  216   4.414   4.455   2.480
   16MMA    H02  217   4.409   4.469   2.521
   16MMA    H03  218   4.454   4.441   2.474
   16MMA    O04  219   4.403   4.498   2.444
   16MMA    C05  220   4.444   4.527   2.429
   16MMA    O06  221   4.489   4.520   2.445
   16MMA    C07  222   4.428   4.571   2.396
   16MMA    C08  223   4.388   4.602   2.412
   16MMA    H09  224   4.396   4.639   2.433
   16MMA    H0A  225   4.349   4.598   2.395
   16MMA    C0B  226   4.456   4.579   2.345
   16MMA    H0C  227   4.481   4.545   2.335
   16MMA    H0D  228   4.427   4.584   2.313
   16MMA    H0E  229   4.481   4.615   2.347
   17MMA    H00  230   4.041   5.037   2.243
   17MMA    C01  231   4.079   5.017   2.236
   17MMA    H02  232   4.082   5.006   2.194
   17MMA    H03  233   4.111   5.045   2.245
   17MMA    O04  234   4.084   4.971   2.269
   17MMA    C05  235   4.133   4.958   2.285
   17MMA    O06  236   4.173   4.983   2.272
   17MMA    C07  237   4.133   4.909   2.314
   17MMA    C08  238   4.109   4.867   2.293
   17MMA    H09  239   4.131   4.838   2.270
   17MMA    H0A  240   4.071   4.854   2.308
   17MMA    C0B  241   4.160   4.908   2.366
   17MMA    H0C  242   4.170   4.948   2.379
   17MMA    H0D  243   4.135   4.889   2.395
   17MMA    H0E  244   4.197   4.885   2.363
   18MMA    H00  245   4.018   0.240   2.153
   18MMA    C01  246   3.996   0.274   2.137
   18MMA    H02  247   3.994   0.271   2.094
   18MMA    H03  248   3.955   0.273   2.153
   18MMA    O04  249   4.022   0.322   2.152
   18MMA    C05  250   3.991   0.365   2.159
   18MMA    O06  251   3.943   0.364   2.152
   18MMA    C07  252   4.022   0.411   2.169
   18MMA    C08  253   4.063   0.423   2.137
   18MMA    H09  254   4.058   0.450   2.104
   18MMA    H0A  255   4.103   0.416   2.150
   18MMA    C0B  256   4.008   0.444   2.215
   18MMA    H0C  257   3.979   0.423   2.241
   18MMA    H0D  258   4.043   0.453   2.239
   18MMA    H0E  259   3.990   0.482   2.202
   19MMA    H00  260   4.622   0.232   2.125
   19MMA    C01  261   4.594   0.241   2.092
   19MMA    H02  262   4.616   0.240   2.055
   19MMA    H03  263   4.564   0.210   2.092
   19MMA    O04  264   4.571   0.292   2.100
   19MMA    C05  265   4.522   0.298   2.082
   19MMA    O06  266   4.497   0.263   2.059
   19MMA    C07  267   4.504   0.352   2.089
   19MMA    C08  268   4.535   0.392   2.072
   19MMA    H09  269   4.529   0.409   2.033
   19MMA    H0A  270   4.558   0.415   2.100
   19MMA    C0B  271   4.452   0.362   2.115
   19MMA    H0C  272   4.437   0.325   2.133
   19MMA    H0D  273   4.456   0.392   2.145
   19MMA    H0E  274   4.423   0.375   2.085
   20MMA    H00  275   4.835   0.811   1.830
   20MMA    C01  276   4.793   0.815   1.839
   20MMA    H02  277   4.784   0.857   1.845
   20MMA    H03  278   4.770   0.801   1.805
   20MMA    O04  279   4.780   0.786   1.885
   20MMA    C05  280   4.731   0.766   1.888
   20MMA    O06  281   4.698   0.772   1.853
   20MMA    C07  282   4.721   0.741   1.938
   20MMA    C08  283   4.732   0.767   1.983
   20MMA    H09  284   4.701   0.789   2.003
   20MMA    H0A  285   4.767   0.757   2.005
   20MMA    C0B  286   4.699   0.686   1.937
   20MMA    H0C  287   4.701   0.669   1.897
   20MMA    H0D  288   4.722   0.661   1.964
   20MMA    H0E  289   4.658   0.686   1.951
   21MMA    H00  290   4.752   1.020   2.306
   21MMA    C01  291   4.770   1.010   2.344
   21MMA    H02  292   4.813   1.015   2.340
   21MMA    H03  293   4.755   1.037   2.374
   21MMA    O04  294   4.759   0.956   2.358
   21MMA    C05  295   4.755   0.946   2.410
   21MMA    O06  296   4.762   0.979   2.445
   21MMA    C07  297   4.747   0.890   2.420
   21MMA    C08  298   4.779   0.855   2.396
   21MMA    H09  299   4.814   0.840   2.416
   21MMA    H0A  300   4.765   0.833   2.362
   21MMA    C0B  301   4.704   0.874   2.455
   21MMA    H0C  302   4.677   0.908   2.463
   21MMA    H0D  303   4.680   0.843   2.437
   21MMA    H0E  304   4.719   0.859   2.493
   22MMA    H00  305   4.993   0.616   2.617
   22MMA    C01  306   5.002   0.573   2.617
   22MMA    H02  307   5.028   0.565   2.583
   22MMA    H03  308   5.025   0.565   2.653
   22MMA    O04  309   4.955   0.542   2.615
   22MMA    C05  310   4.957   0.495   2.639
   22MMA    O06  311   4.996   0.478   2.662
   22MMA    C07  312   4.908   0.466   2.631
   22MMA    C08  313   4.889   0.461   2.582
   22MMA    H09  314   4.899   0.425   2.559
   22MMA    H0A  315   4.856   0.484   2.569
   22MMA    C0B  316   4.881   0.444   2.678
   22MMA    H0C  317   4.898   0.460   2.715
   22MMA    H0D  318   4.839   0.453   2.677
   22MMA    H0E  319   4.885   0.400   2.679
   23MMA    H00  320   0.266   0.482   2.622
   23MMA    C01  321   0.296   0.451   2.630
   23MMA    H02  322   0.298   0.446   2.673
   23MMA    H03  323   0.283   0.414   2.612
   23MMA    O04  324   0.346   0.467   2.610
   23MMA    C05  325   0.378   0.428   2.594
   23MMA    O06  326   0.367   0.381   2.597
   23MMA    C07  327   0.429   0.449   2.579
   23MMA    C08  328   0.455   0.482   2.611
   23MMA    H09  329   0.485   0.467   2.639
   23MMA    H0A  330   0.456   0.524   2.603
   23MMA    C0B  331   0.451   0.433   2.526
   23MMA    H0C  332   0.420   0.412   2.503
   23MMA    H0D  333   0.465   0.467   2.504
   23MMA    H0E  334   0.484   0.405   2.532
   24MMA    H00  335   0.352   0.312   2.057
   24MMA    C01  336   0.373   0.333   2.089
   24MMA    H02  337   0.344   0.352   2.115
   24MMA    H03  338   0.396   0.305   2.112
   24MMA    O04  339   0.408   0.372   2.066
   24MMA    C05  340   0.452   0.383   2.093
   24MMA    O06  341   0.464   0.362   2.135
   24MMA    C07  342   0.481   0.426   2.069
   24MMA    C08  343   0.455   0.471   2.056
   24MMA    H09  344   0.456   0.504   2.084
   24MMA    H0A  345   0.445   0.479   2.016
   24MMA    C0B  346   0.538   0.418   2.058
   24MMA    H0C  347   0.549   0.376   2.063
   24MMA    H0D  348   0.548   0.430   2.017
   24MMA    H0E  349   0.562   0.442   2.085
   25MMA    H00  350   0.480   5.071   1.887
   25MMA    C01  351   0.454   5.053   1.917
   25MMA    H02  352   0.476   5.048   1.954
   25MMA    H03  353   0.421   5.080   1.924
   25MMA    O04  354   0.435   5.003   1.899
   25MMA    C05  355   0.387   4.988   1.915
   25MMA    O06  356   0.359   5.015   1.945
   25MMA    C07  357   0.374   4.936   1.898
   25MMA    C08  358   0.409   4.896   1.906
   25MMA    H09  359   0.405   4.871   1.941
   25MMA    H0A  360   0.432   4.882   1.873
   25MMA    C0B  361   0.322   4.927   1.871
   25MMA    H0C  362   0.304   4.966   1.860
   25MMA    H0D  363   0.328   4.905   1.834
   25MMA    H0E  364   0.295   4.905   1.896
   26MMA    H00  365   0.259  -0.078   1.373
   26MMA    C01  366   0.249  -0.038   1.361
   26MMA    H02  367   0.261  -0.032   1.319
   26MMA    H03  368   0.206  -0.033   1.363
   26MMA    O04  369   0.274   0.001   1.394
   26MMA    C05  370   0.248   0.046   1.402
   26MMA    O06  371   0.205   0.056   1.381
   26MMA    C07  372   0.279   0.083   1.432
   26MMA    C08  373   0.330   0.092   1.418
   26MMA    H09  374   0.339   0.126   1.393
   26MMA    H0A  375   0.362   0.075   1.440
   26MMA    C0B  376   0.254   0.108   1.479
   26MMA    H0C  377   0.216   0.088   1.489
   26MMA    H0D  378   0.280   0.105   1.514
   26MMA    H0E  379   0.246   0.150   1.471
   27MMA    H00  380   5.066   0.361   1.712
   27MMA    C01  381   5.045   0.338   1.682
   27MMA    H02  382   5.042   0.361   1.646
   27MMA    H03  383   5.069   0.302   1.674
   27MMA    O04  384   4.994   0.323   1.701
   27MMA    C05  385   4.974   0.277   1.683
   27MMA    O06  386   4.998   0.248   1.652
   27MMA    C07  387   4.921   0.269   1.701
   27MMA    C08  388   4.885   0.308   1.695
   27MMA    H09  389   4.859   0.308   1.660
   27MMA    H0A  390   4.873   0.332   1.728
   27MMA    C0B  391   4.908   0.218   1.727
   27MMA    H0C  392   4.944   0.196   1.736
   27MMA    H0D  393   4.886   0.225   1.764
   27MMA    H0E  394   4.883   0.194   1.701
   28MMA    H00  395   4.568   0.055   1.691
   28MMA    C01  396   4.564   0.078   1.654
   28MMA    H02  397   4.592   0.110   1.654
   28MMA    H03  398   4.573   0.052   1.620
   28MMA    O04  399   4.511   0.098   1.650
   28MMA    C05  400   4.491   0.104   1.601
   28MMA    O06  401   4.517   0.093   1.561
   28MMA    C07  402   4.440   0.128   1.602
   28MMA    C08  403   4.433   0.173   1.630
   28MMA    H09  404   4.436   0.211   1.610
   28MMA    H0A  405   4.413   0.172   1.668
   28MMA    C0B  406   4.396   0.103   1.572
   28MMA    H0C  407   4.408   0.062   1.559
   28MMA    H0D  408   4.361   0.099   1.597
   28MMA    H0E  409   4.386   0.126   1.537
   29MMA    H00  410   4.466   4.943   1.167
   29MMA    C01  411   4.503   4.921   1.160
   29MMA    H02  412   4.506   4.912   1.118
   29MMA    H03  413   4.536   4.947   1.170
   29MMA    O04  414   4.504   4.874   1.191
   29MMA    C05  415   4.552   4.857   1.206
   29MMA    O06  416   4.593   4.879   1.195
   29MMA    C07  417   4.548   4.806   1.233
   29MMA    C08  418   4.521   4.767   1.210
   29MMA    H09  419   4.541   4.737   1.186
   29MMA    H0A  420   4.482   4.757   1.224
   29MMA    C0B  421   4.574   4.801   1.285
   29MMA    H0C  422   4.586   4.840   1.300
   29MMA    H0D  423   4.546   4.783   1.314
   29MMA    H0E  424   4.609   4.775   1.282
   30MMA    H00  425   4.427   0.159   1.074
   30MMA    C01  426   4.465   0.179   1.081
   30MMA    H02  427   4.470   0.184   1.123
   30MMA    H03  428   4.497   0.155   1.065
   30MMA    O04  429   4.465   0.230   1.056
   30MMA    C05  430   4.511   0.248   1.039
   30MMA    O06  431   4.553   0.224   1.044
   30MMA    C07  432   4.506   0.301   1.018
   30MMA    C08  433   4.482   0.338   1.047
   30MMA    H09  434   4.504   0.365   1.072
   30MMA    H0A  435   4.442   0.350   1.037
   30MMA    C0B  436   4.529   0.313   0.965
   30MMA    H0C  437   4.539   0.275   0.945
   30MMA    H0D  438   4.500   0.334   0.941
   30MMA    H0E  439   4.564   0.337   0.968
   31MMA    H00  440   4.637   5.139   0.582
   31MMA    C01  441   4.646   5.115   0.617
   31MMA    H02  442   4.687   5.119   0.627
   31MMA    H03  443   4.622   5.129   0.650
   31MMA    O04  444   4.634   5.060   0.607
   31MMA    C05  445   4.618   5.031   0.648
   31MMA    O06  446   4.614   5.049   0.693
   31MMA    C07  447   4.612   4.977   0.634
   31MMA    C08  448   4.651   4.952   0.608
   31MMA    H09  449   4.680   4.928   0.630
   31MMA    H0A  450   4.647   4.944   0.566
   31MMA    C0B  451   4.561   4.950   0.648
   31MMA    H0C  452   4.531   4.979   0.661
   31MMA    H0D  453   4.545   4.929   0.613
   31MMA    H0E  454   4.567   4.921   0.680
   32MMA    H00  455   4.511   4.623   0.317
   32MMA    C01  456   4.519   4.583   0.332
   32MMA    H02  457   4.483   4.567   0.350
   32MMA    H03  458   4.530   4.558   0.298
   32MMA    O04  459   4.561   4.583   0.370
   32MMA    C05  460   4.591   4.540   0.373
   32MMA    O06  461   4.584   4.501   0.345
   32MMA    C07  462   4.629   4.544   0.416
   32MMA    C08  463   4.612   4.558   0.464
   32MMA    H09  464   4.603   4.527   0.493
   32MMA    H0A  465   4.619   4.597   0.479
   32MMA    C0B  466   4.686   4.533   0.404
   32MMA    H0C  467   4.692   4.531   0.361
   32MMA    H0D  468   4.711   4.564   0.420
   32MMA    H0E  469   4.698   4.495   0.422
   33MMA    H00  470   4.685   4.762   5.130
   33MMA    C01  471   4.667   4.801   5.120
   33MMA    H02  472   4.625   4.800   5.128
   33MMA    H03  473   4.686   4.831   5.145
   33MMA    O04  474   4.676   4.812   5.065
   33MMA    C05  475   4.681   4.863   5.052
   33MMA    O06  476   4.678   4.899   5.084
   33MMA    C07  477   4.686   4.870   4.996
   33MMA    C08  478   4.650   4.846   4.964
   33MMA    H09  479   4.616   4.868   4.950
   33MMA    H0A  480   4.661   4.811   4.942
   33MMA    C0B  481   4.730   4.902   4.975
   33MMA    H0C  482   4.759   4.911   5.007
   33MMA    H0D  483   4.750   4.881   4.943
   33MMA    H0E  484   4.715   4.940   4.959
   34MMA    H00  485   5.052   4.962   4.562
   34MMA    C01  486   5.041   4.921   4.549
   34MMA    H02  487   5.029   4.923   4.508
   34MMA    H03  488   5.076   4.896   4.552
   34MMA    O04  489   5.000   4.901   4.582
   34MMA    C05  490   4.999   4.848   4.589
   34MMA    O06  491   5.031   4.818   4.569
   34MMA    C07  492   4.953   4.832   4.618
   34MMA    C08  493   4.905   4.849   4.603
   34MMA    H09  494   4.880   4.825   4.577
   34MMA    H0A  495   4.885   4.880   4.624
   34MMA    C0B  496   4.960   4.797   4.665
   34MMA    H0C  497   5.003   4.795   4.676
   34MMA    H0D  498   4.938   4.813   4.699
   34MMA    H0E  499   4.946   4.757   4.657
   35MMA    H00  500  -0.118   4.725   4.130
   35MMA    C01  501  -0.088   4.703   4.106
   35MMA    H02  502  -0.096   4.661   4.110
   35MMA    H03  503  -0.093   4.715   4.065
   35MMA    O04  504  -0.036   4.715   4.125
   35MMA    C05  505   0.003   4.714   4.089
   35MMA    O06  506  -0.005   4.703   4.042
   35MMA    C07  507   0.054   4.722   4.112
   35MMA    C08  508   0.067   4.693   4.155
   35MMA    H09  509   0.091   4.657   4.150
   35MMA    H0A  510   0.067   4.711   4.194
   35MMA    C0B  511   0.089   4.763   4.089
   35MMA    H0C  512   0.067   4.787   4.060
   35MMA    H0D  513   0.105   4.789   4.120
   35MMA    H0E  514   0.122   4.744   4.069
   36MMA    H00  515   0.321   4.638   4.345
   36MMA    C01  516   0.361   4.622   4.340
   36MMA    H02  517   0.364   4.606   4.299
   36MMA    H03  518   0.390   4.653   4.345
   36MMA    O04  519   0.370   4.580   4.377
   36MMA    C05  520   0.420   4.573   4.393
   36MMA    O06  521   0.457   4.601   4.378
   36MMA    C07  522   0.425   4.528   4.428
   36MMA    C08  523   0.404   4.482   4.412
   36MMA    H09  524   0.429   4.452   4.392
   36MMA    H0A  525   0.368   4.468   4.429
   36MMA    C0B  526   0.452   4.535   4.479
   36MMA    H0C  527   0.458   4.577   4.488
   36MMA    H0D  528   0.428   4.518   4.511
   36MMA    H0E  529   0.491   4.515   4.479
   37MMA    H00  530   0.429   3.926   4.521
   37MMA    C01  531   0.467   3.948   4.523
   37MMA    H02  532   0.487   3.937   4.560
   37MMA    H03  533   0.492   3.935   4.490
   37MMA    O04  534   0.458   4.003   4.520
   37MMA    C05  535   0.496   4.033   4.497
   37MMA    O06  536   0.537   4.014   4.480
   37MMA    C07  537   0.484   4.088   4.501
   37MMA    C08  538   0.471   4.109   4.548
   37MMA    H09  539   0.501   4.128   4.573
   37MMA    H0A  540   0.430   4.118   4.557
   37MMA    C0B  541   0.486   4.120   4.452
   37MMA    H0C  542   0.489   4.094   4.417
   37MMA    H0D  543   0.451   4.144   4.448
   37MMA    H0E  544   0.521   4.147   4.453
   38MMA    H00  545   0.550   4.381   4.916
   38MMA    C01  546   0.508   4.384   4.902
   38MMA    H02  547   0.495   4.344   4.892
   38MMA    H03  548   0.483   4.399   4.934
   38MMA    O04  549   0.505   4.418   4.857
   38MMA    C05  550   0.460   4.445   4.850
   38MMA    O06  551   0.422   4.441   4.881
   38MMA    C07  552   0.460   4.474   4.802
   38MMA    C08  553   0.473   4.450   4.757
   38MMA    H09  554   0.443   4.434   4.731
   38MMA    H0A  555   0.512   4.456   4.739
   38MMA    C0B  556   0.446   4.531   4.804
   38MMA    H0C  557   0.444   4.545   4.845
   38MMA    H0D  558   0.475   4.555   4.782
   38MMA    H0E  559   0.406   4.538   4.786
   39MMA    H00  560   0.334   4.737   0.060
   39MMA    C01  561   0.328   4.721   0.100
   39MMA    H02  562   0.285   4.719   0.108
   39MMA    H03  563   0.344   4.681   0.103
   39MMA    O04  564   0.353   4.755   0.139
   39MMA    C05  565   0.370   4.732   0.183
   39MMA    O06  566   0.366   4.684   0.192
   39MMA    C07  567   0.390   4.770   0.220
   39MMA    C08  568   0.361   4.812   0.232
   39MMA    H09  569   0.336   4.812   0.267
   39MMA    H0A  570   0.370   4.850   0.215
   39MMA    C0B  571   0.444   4.761   0.243
   39MMA    H0C  572   0.465   4.729   0.221
   39MMA    H0D  573   0.468   4.797   0.240
   39MMA    H0E  574   0.441   4.750   0.284
   40MMA    H00  575  -0.022   4.322   0.277
   40MMA    C01  576   0.022   4.318   0.279
   40MMA    H02  577   0.033   4.277   0.272
   40MMA    H03  578   0.039   4.343   0.248
   40MMA    O04  579   0.041   4.335   0.330
   40MMA    C05  580   0.089   4.357   0.332
   40MMA    O06  581   0.117   4.362   0.292
   40MMA    C07  582   0.105   4.367   0.385
   40MMA    C08  583   0.101   4.329   0.422
   40MMA    H09  584   0.135   4.304   0.431
   40MMA    H0A  585   0.069   4.330   0.450
   40MMA    C0B  586   0.125   4.421   0.398
   40MMA    H0C  587   0.117   4.449   0.364
   40MMA    H0D  588   0.106   4.437   0.433
   40MMA    H0E  589   0.168   4.420   0.405
   41MMA    H00  590  -0.064   3.870   0.645
   41MMA    C01  591  -0.055   3.912   0.637
   41MMA    H02  592  -0.042   3.915   0.595
   41MMA    H03  593  -0.090   3.935   0.643
   41MMA    O04  594  -0.013   3.930   0.671
   41MMA    C05  595  -0.014   3.981   0.685
   41MMA    O06  596  -0.048   4.012   0.669
   41MMA    C07  597   0.032   3.995   0.716
   41MMA    C08  598   0.080   3.981   0.698
   41MMA    H09  599   0.104   4.009   0.675
   41MMA    H0A  600   0.101   3.948   0.716
   41MMA    C0B  601   0.023   4.023   0.766
   41MMA    H0C  602  -0.019   4.023   0.777
   41MMA    H0D  603   0.046   4.005   0.798
   41MMA    H0E  604   0.036   4.065   0.763
   42MMA    H00  605   4.765   4.218   0.678
   42MMA    C01  606   4.757   4.258   0.695
   42MMA    H02  607   4.762   4.256   0.738
   42MMA    H03  608   4.785   4.286   0.679
   42MMA    O04  609   4.704   4.273   0.682
   42MMA    C05  610   4.695   4.325   0.677
   42MMA    O06  611   4.729   4.359   0.683
   42MMA    C07  612   4.639   4.336   0.668
   42MMA    C08  613   4.603   4.314   0.701
   42MMA    H09  614   4.589   4.337   0.734
   42MMA    H0A  615   4.580   4.281   0.688
   42MMA    C0B  616   4.625   4.370   0.623
   42MMA    H0C  617   4.659   4.376   0.596
   42MMA    H0D  618   4.593   4.351   0.600
   42MMA    H0E  619   4.611   4.409   0.637
   43MMA    H00  620   4.107   4.110   0.823
   43MMA    C01  621   4.104   4.126   0.783
   43MMA    H02  622   4.072   4.105   0.762
   43MMA    H03  623   4.095   4.168   0.785
   43MMA    O04  624   4.153   4.119   0.755
   43MMA    C05  625   4.166   4.154   0.718
   43MMA    O06  626   4.137   4.192   0.707
   43MMA    C07  627   4.214   4.140   0.691
   43MMA    C08  628   4.219   4.091   0.671
   43MMA    H09  629   4.209   4.083   0.630
   43MMA    H0A  630   4.243   4.062   0.691
   43MMA    C0B  631   4.256   4.181   0.686
   43MMA    H0C  632   4.248   4.215   0.712
   43MMA    H0D  633   4.294   4.164   0.698
   43MMA    H0E  634   4.259   4.195   0.645
   44MMA    H00  635   4.344   3.876   0.236
   44MMA    C01  636   4.304   3.878   0.254
   44MMA    H02  637   4.298   3.919   0.269
   44MMA    H03  638   4.274   3.870   0.224
   44MMA    O04  639   4.299   3.841   0.297
   44MMA    C05  640   4.251   3.821   0.306
   44MMA    O06  641   4.212   3.834   0.280
   44MMA    C07  642   4.251   3.788   0.352
   44MMA    C08  643   4.272   3.806   0.397
   44MMA    H09  644   4.247   3.825   0.427
   44MMA    H0A  645   4.311   3.792   0.410
   44MMA    C0B  646   4.227   3.734   0.348
   44MMA    H0C  647   4.220   3.724   0.306
   44MMA    H0D  648   4.254   3.705   0.364
   44MMA    H0E  649   4.189   3.732   0.369
   45MMA    H00  650   4.355   3.752   5.008
   45MMA    C01  651   4.353   3.780   4.975
   45MMA    H02  652   4.317   3.805   4.980
   45MMA    H03  653   4.388   3.806   4.977
   45MMA    O04  654   4.351   3.753   4.925
   45MMA    C05  655   4.372   3.778   4.884
   45MMA    O06  656   4.393   3.822   4.887
   45MMA    C07  657   4.364   3.749   4.836
   45MMA    C08  658   4.315   3.732   4.824
   45MMA    H09  659   4.290   3.756   4.798
   45MMA    H0A  660   4.304   3.691   4.829
   45MMA    C0B  661   4.410   3.737   4.802
   45MMA    H0C  662   4.447   3.747   4.823
   45MMA    H0D  663   4.411   3.696   4.791
   45MMA    H0E  664   4.409   3.761   4.765
   46MMA    H00  665   4.998   3.660   4.752
   46MMA    C01  666   4.963   3.635   4.761
   46MMA    H02  667   4.954   3.610   4.727
   46MMA    H03  668   4.973   3.610   4.795
   46MMA    O04  669   4.918   3.668   4.774
   46MMA    C05  670   4.884   3.649   4.809
   46MMA    O06  671   4.888   3.605   4.829
   46MMA    C07  672   4.839   3.683   4.815
   46MMA    C08  673   4.814   3.701   4.771
   46MMA    H09  674   4.779   3.680   4.757
   46MMA    H0A  675   4.820   3.741   4.758
   46MMA    C0B  676   4.823   3.699   4.869
   46MMA    H0C  677   4.854   3.687   4.898
   46MMA    H0D  678   4.817   3.741   4.872
   46MMA    H0E  679   4.786   3.679   4.880
   47MMA    H00  680   4.386   3.912   4.546
   47MMA    C01  681   4.419   3.885   4.553
   47MMA    H02  682   4.428   3.885   4.596
   47MMA    H03  683   4.406   3.845   4.542
   47MMA    O04  684   4.465   3.900   4.524
   47MMA    C05  685   4.497   3.861   4.508
   47MMA    O06  686   4.489   3.814   4.519
   47MMA    C07  687   4.544   3.882   4.483
   47MMA    C08  688   4.571   3.920   4.506
   47MMA    H09  689   4.606   3.910   4.531
   47MMA    H0A  690   4.568   3.960   4.492
   47MMA    C0B  691   4.559   3.859   4.430
   47MMA    H0C  692   4.526   3.835   4.414
   47MMA    H0D  693   4.567   3.891   4.402
   47MMA    H0E  694   4.594   3.835   4.434
   48MMA    H00  695   4.961   4.155   4.333
   48MMA    C01  696   4.944   4.167   4.371
   48MMA    H02  697   4.934   4.132   4.395
   48MMA    H03  698   4.973   4.191   4.393
   48MMA    O04  699   4.897   4.198   4.362
   48MMA    C05  700   4.885   4.235   4.398
   48MMA    O06  701   4.912   4.244   4.437
   48MMA    C07  702   4.835   4.260   4.386
   48MMA    C08  703   4.793   4.230   4.378
   48MMA    H09  704   4.765   4.221   4.410
   48MMA    H0A  705   4.778   4.224   4.338
   48MMA    C0B  706   4.833   4.319   4.384
   48MMA    H0C  707   4.874   4.336   4.384
   48MMA    H0D  708   4.813   4.332   4.349
   48MMA    H0E  709   4.812   4.334   4.419
   49MMA    H00  710  -0.099   3.870   4.074
   49MMA    C01  711  -0.060   3.872   4.055
   49MMA    H02  712  -0.061   3.847   4.019
   49MMA    H03  713  -0.052   3.913   4.042
   49MMA    O04  714  -0.020   3.854   4.090
   49MMA    C05  715   0.028   3.875   4.084
   49MMA    O06  716   0.039   3.909   4.050
   49MMA    C07  717   0.066   3.851   4.119
   49MMA    C08  718   0.070   3.798   4.121
   49MMA    H09  719   0.099   3.778   4.096
   49MMA    H0A  720   0.053   3.776   4.153
   49MMA    C0B  721   0.099   3.886   4.153
   49MMA    H0C  722   0.084   3.927   4.152
   49MMA    H0D  723   0.099   3.872   4.194
   49MMA    H0E  724   0.141   3.886   4.138
   50MMA    H00  725   0.251   3.536   4.378
   50MMA    C01  726   0.257   3.494   4.370
   50MMA    H02  727   0.275   3.475   4.405
   50MMA    H03  728   0.219   3.475   4.362
   50MMA    O04  729   0.292   3.487   4.325
   50MMA    C05  730   0.284   3.444   4.296
   50MMA    O06  731   0.250   3.410   4.306
   50MMA    C07  732   0.324   3.439   4.255
   50MMA    C08  733   0.375   3.444   4.268
   50MMA    H09  734   0.399   3.409   4.276
   50MMA    H0A  735   0.396   3.480   4.259
   50MMA    C0B  736   0.305   3.430   4.200
   50MMA    H0C  737   0.262   3.436   4.197
   50MMA    H0D  738   0.325   3.458   4.173
   50MMA    H0E  739   0.315   3.390   4.187
   51MMA    H00  740   5.135   3.090   4.388
   51MMA    C01  741   5.108   3.069   4.415
   51MMA    H02  742   5.107   3.028   4.403
   51MMA    H03  743   5.123   3.072   4.455
   51MMA    O04  744   5.056   3.092   4.411
   51MMA    C05  745   5.027   3.090   4.455
   51MMA    O06  746   5.042   3.069   4.497
   51MMA    C07  747   4.974   3.109   4.446
   51MMA    C08  748   4.946   3.091   4.404
   51MMA    H09  749   4.919   3.058   4.410
   51MMA    H0A  750   4.942   3.115   4.369
   51MMA    C0B  751   4.953   3.150   4.483
   51MMA    H0C  752   4.984   3.165   4.508
   51MMA    H0D  753   4.936   3.183   4.460
   51MMA    H0E  754   4.922   3.133   4.508
   52MMA    H00  755   4.482   3.421   4.656
   52MMA    C01  756   4.499   3.381   4.656
   52MMA    H02  757   4.500   3.366   4.697
   52MMA    H03  758   4.472   3.355   4.633
   52MMA    O04  759   4.551   3.381   4.634
   52MMA    C05  760   4.566   3.337   4.609
   52MMA    O06  761   4.537   3.298   4.604
   52MMA    C07  762   4.620   3.340   4.592
   52MMA    C08  763   4.657   3.355   4.627
   52MMA    H09  764   4.680   3.324   4.648
   52MMA    H0A  765   4.674   3.394   4.626
   52MMA    C0B  766   4.633   3.328   4.536
   52MMA    H0C  767   4.596   3.325   4.512
   52MMA    H0D  768   4.658   3.359   4.519
   52MMA    H0E  769   4.654   3.290   4.533
   53MMA    H00  770   5.110   3.316   4.930
   53MMA    C01  771   5.070   3.324   4.915
   53MMA    H02  772   5.050   3.287   4.905
   53MMA    H03  773   5.048   3.344   4.946
   53MMA    O04  774   5.073   3.358   4.869
   53MMA    C05  775   5.033   3.391   4.861
   53MMA    O06  776   4.994   3.394   4.891
   53MMA    C07  777   5.038   3.419   4.812
   53MMA    C08  778   5.048   3.392   4.768
   53MMA    H09  779   5.016   3.380   4.742
   53MMA    H0A  780   5.087   3.392   4.751
   53MMA    C0B  781   5.033   3.478   4.813
   53MMA    H0C  782   5.034   3.493   4.854
   53MMA    H0D  783   5.066   3.496   4.791
   53MMA    H0E  784   4.996   3.490   4.794
   54MMA    H00  785   5.102   3.149   0.138
   54MMA    C01  786   5.104   3.137   0.180
   54MMA    H02  787   5.097   3.094   0.182
   54MMA    H03  788   5.143   3.145   0.195
   54MMA    O04  789   5.065   3.165   0.210
   54MMA    C05  790   5.076   3.174   0.261
   54MMA    O06  791   5.118   3.160   0.282
   54MMA    C07  792   5.032   3.199   0.288
   54MMA    C08  793   4.984   3.177   0.284
   54MMA    H09  794   4.970   3.149   0.314
   54MMA    H0A  795   4.955   3.194   0.258
   54MMA    C0B  796   5.043   3.247   0.319
   54MMA    H0C  797   5.082   3.263   0.310
   54MMA    H0D  798   5.013   3.278   0.309
   54MMA    H0E  799   5.040   3.239   0.361
   55MMA    H00  800  -0.074   3.013   0.666
   55MMA    C01  801  -0.053   3.005   0.704
   55MMA    H02  802  -0.044   3.043   0.723
   55MMA    H03  803  -0.080   2.982   0.730
   55MMA    O04  804  -0.005   2.976   0.695
   55MMA    C05  805   0.010   2.942   0.733
   55MMA    O06  806  -0.014   2.937   0.775
   55MMA    C07  807   0.060   2.919   0.721
   55MMA    C08  808   0.101   2.950   0.706
   55MMA    H09  809   0.129   2.963   0.735
   55MMA    H0A  810   0.112   2.952   0.665
   55MMA    C0B  811   0.065   2.860   0.725
   55MMA    H0C  812   0.025   2.842   0.729
   55MMA    H0D  813   0.084   2.844   0.689
   55MMA    H0E  814   0.089   2.849   0.759
   56MMA    H00  815   4.893   2.682   0.427
   56MMA    C01  816   4.883   2.642   0.413
   56MMA    H02  817   4.876   2.643   0.371
   56MMA    H03  818   4.918   2.616   0.420
   56MMA    O04  819   4.838   2.622   0.441
   56MMA    C05  820   4.836   2.569   0.448
   56MMA    O06  821   4.870   2.539   0.432
   56MMA    C07  822   4.786   2.554   0.472
   56MMA    C08  823   4.741   2.572   0.451
   56MMA    H09  824   4.719   2.547   0.423
   56MMA    H0A  825   4.719   2.603   0.470
   56MMA    C0B  826   4.788   2.520   0.520
   56MMA    H0C  827   4.829   2.517   0.535
   56MMA    H0D  828   4.763   2.536   0.551
   56MMA    H0E  829   4.775   2.479   0.510
   57MMA    H00  830   5.120   2.075   0.250
   57MMA    C01  831   5.092   2.102   0.271
   57MMA    H02  832   5.078   2.082   0.307
   57MMA    H03  833   5.114   2.138   0.282
   57MMA    O04  834   5.048   2.115   0.237
   57MMA    C05  835   5.026   2.162   0.244
   57MMA    O06  836   5.041   2.194   0.278
   57MMA    C07  837   4.980   2.169   0.211
   57MMA    C08  838   4.943   2.131   0.211
   57MMA    H09  839   4.908   2.134   0.237
   57MMA    H0A  840   4.940   2.104   0.179
   57MMA    C0B  841   4.976   2.217   0.178
   57MMA    H0C  842   5.015   2.238   0.178
   57MMA    H0D  843   4.966   2.207   0.138
   57MMA    H0E  844   4.946   2.244   0.194
   58MMA    H00  845  -0.065   2.059   0.710
   58MMA    C01  846  -0.047   2.097   0.723
   58MMA    H02  847  -0.064   2.129   0.700
   58MMA    H03  848  -0.056   2.102   0.765
   58MMA    O04  849   0.009   2.095   0.715
   58MMA    C05  850   0.039   2.123   0.749
   58MMA    O06  851   0.020   2.149   0.785
   58MMA    C07  852   0.094   2.122   0.734
   58MMA    C08  853   0.108   2.134   0.684
   58MMA    H09  854   0.120   2.174   0.674
   58MMA    H0A  855   0.119   2.103   0.657
   58MMA    C0B  856   0.133   2.107   0.776
   58MMA    H0C  857   0.113   2.091   0.811
   58MMA    H0D  858   0.160   2.078   0.760
   58MMA    H0E  859   0.156   2.142   0.788
   59MMA    H00  860   0.493   2.359   0.468
   59MMA    C01  861   0.502   2.316   0.468
   59MMA    H02  862   0.473   2.296   0.443
   59MMA    H03  863   0.542   2.310   0.452
   59MMA    O04  864   0.500   2.296   0.521
   59MMA    C05  865   0.532   2.255   0.533
   59MMA    O06  866   0.562   2.235   0.500
   59MMA    C07  867   0.523   2.236   0.585
   59MMA    C08  868   0.474   2.224   0.601
   59MMA    H09  869   0.459   2.184   0.598
   59MMA    H0A  870   0.453   2.251   0.627
   59MMA    C0B  871   0.570   2.229   0.621
   59MMA    H0C  872   0.605   2.249   0.603
   59MMA    H0D  873   0.562   2.247   0.659
   59MMA    H0E  874   0.579   2.187   0.627
   60EH     H00  875   0.583   2.016   1.118
   60EH     C01  876   0.553   2.045   1.105
   60EH     H02  877   0.559   2.082   1.126
   60EH     H03  878   0.557   2.051   1.062
   60EH     C04  879   0.497   2.022   1.117
   60EH     C05  880   0.485   1.998   1.163
   60EH     H06  881   0.480   2.020   1.199
   60EH     H07  882   0.492   1.955   1.168
   60EH     C08  883   0.454   2.030   1.076
   60EH     O09  884   0.449   2.069   1.048
   60EH     O0A  885   0.421   1.985   1.071
   60EH     C0B  886   0.386   1.983   1.025
   60EH     H0C  887   0.408   1.972   0.990
   60EH     H0D  888   0.368   2.022   1.019
   60EH     C0E  889   0.340   1.939   1.036
   60EH     H0F  890   0.354   1.912   1.067
   60EH     C0G  891   0.287   1.968   1.058
   60EH     H0H  892   0.294   1.984   1.098
   60EH     H0I  893   0.255   1.939   1.062
   60EH     C0J  894   0.268   2.015   1.020
   60EH     H0K  895   0.263   2.052   1.042
   60EH     H0M  896   0.230   2.005   1.000
   60EH     H0N  897   0.297   2.021   0.988
   60EH     C0O  898   0.327   1.906   0.983
   60EH     H0P  899   0.302   1.930   0.956
   60EH     H0Q  900   0.364   1.898   0.962
   60EH     C0R  901   0.297   1.852   0.996
   60EH     H0S  902   0.271   1.858   1.030
   60EH     H0T  903   0.326   1.822   1.007
   60EH     C0U  904   0.264   1.833   0.947
   60EH     H0V  905   0.222   1.846   0.952
   60EH     H0W  906   0.279   1.851   0.910
   60EH     C0X  907   0.266   1.770   0.941
   60EH     H0Y  908   0.241   1.757   0.908
   60EH     H0Z  909   0.251   1.751   0.978
   60EH     H10  910   0.307   1.756   0.934
   61ST     H00  911   0.514   2.209   1.504
   61ST     C01  912   0.551   2.187   1.502
   61ST     H02  913   0.543   2.145   1.497
   61ST     H03  914   0.574   2.202   1.467
   61ST     C04  915   0.584   2.196   1.553
   61ST     C05  916   0.586   2.244   1.578
   61ST     H06  917   0.620   2.270   1.573
   61ST     H07  918   0.550   2.262   1.592
   61ST     C08  919   0.615   2.150   1.575
   61ST     O09  920   0.642   2.119   1.549
   61ST     O0A  921   0.608   2.145   1.631
   61ST     C0B  922   0.586   2.095   1.650
   61ST     H0C  923   0.542   2.097   1.649
   61ST     H0D  924   0.599   2.063   1.625
   61ST     C0E  925   0.606   2.085   1.710
   61ST     H0F  926   0.575   2.062   1.732
   61ST     H0G  927   0.610   2.124   1.731
   61ST     C0H  928   0.661   2.054   1.711
   61ST     H0I  929   0.683   2.065   1.747
   61ST     H0J  930   0.686   2.066   1.677
   61ST     C0K  931   0.652   1.989   1.710
   61ST     H0M  932   0.613   1.980   1.692
   61ST     H0N  933   0.682   1.971   1.684
   61ST     C0O  934   0.656   1.962   1.770
   61ST     H0P  935   0.616   1.958   1.787
   61ST     H0Q  936   0.678   1.989   1.796
   61ST     C0R  937   0.686   1.903   1.768
   61ST     H0S  938   0.706   1.896   1.807
   61ST     H0T  939   0.717   1.903   1.738
   61ST     C0U  940   0.644   1.856   1.757
   61ST     H0V  941   0.664   1.823   1.737
   61ST     H0W  942   0.612   1.870   1.730
   61ST     C0X  943   0.617   1.834   1.812
   61ST     H0Y  944   0.631   1.858   1.845
   61ST     H0Z  945   0.574   1.839   1.810
   61ST     C10  946   0.631   1.772   1.822
   61ST     H11  947   0.597   1.747   1.811
   61ST     H12  948   0.665   1.760   1.797
   61ST     C13  949   0.646   1.761   1.885
   61ST     H14  950   0.685   1.744   1.888
   61ST     H15  951   0.647   1.799   1.906
   61ST     C16  952   0.603   1.722   1.913
   61ST     H17  953   0.565   1.723   1.891
   61ST     H18  954   0.617   1.681   1.911
   61ST     C19  955   0.592   1.738   1.975
   61ST     H1A  956   0.604   1.779   1.982
   61ST     H1B  957   0.549   1.737   1.983
   61ST     C1C  958   0.622   1.699   2.015
   61ST     H1D  959   0.635   1.664   1.994
   61ST     H1E  960   0.658   1.719   2.030
   61ST     C1F  961   0.586   1.683   2.064
   61ST     H1G  962   0.594   1.709   2.098
   61ST     H1H  963   0.544   1.689   2.054
   61ST     C1I  964   0.594   1.623   2.081
   61ST     H1J  965   0.617   1.622   2.118
   61ST     H1K  966   0.619   1.603   2.051
   61ST     C1M  967   0.541   1.594   2.088
   61ST     H1N  968   0.545   1.553   2.074
   61ST     H1O  969   0.511   1.613   2.062
   61ST     C1P  970   0.522   1.594   2.146
   61ST     H1Q  971   0.549   1.570   2.170
   61ST     H1R  972   0.524   1.635   2.162
   61ST     C1S  973   0.465   1.573   2.151
   61ST     H1T  974   0.445   1.590   2.186
   61ST     H1U  975   0.465   1.530   2.156
   61ST     H1V  976   0.442   1.583   2.116
   62ST     H00  977   1.166   2.957   1.567
   62ST     C01  978   1.144   2.940   1.533
   62ST     H02  979   1.112   2.967   1.523
   62ST     H03  980   1.171   2.937   1.499
   62ST     C04  981   1.122   2.885   1.547
   62ST     C05  982   1.150   2.849   1.577
   62ST     H06  983   1.171   2.816   1.557
   62ST     H07  984   1.162   2.859   1.616
   62ST     C08  985   1.067   2.870   1.527
   62ST     O09  986   1.051   2.878   1.481
   62ST     O0A  987   1.036   2.847   1.567
   62ST     C0B  988   0.986   2.873   1.580
   62ST     H0C  989   0.994   2.905   1.610
   62ST     H0D  990   0.970   2.891   1.545
   62ST     C0E  991   0.945   2.830   1.603
   62ST     H0F  992   0.918   2.849   1.632
   62ST     H0G  993   0.967   2.799   1.626
   62ST     C0H  994   0.911   2.803   1.557
   62ST     H0I  995   0.900   2.763   1.569
   62ST     H0J  996   0.936   2.799   1.521
   62ST     C0K  997   0.857   2.838   1.543
   62ST     H0M  998   0.863   2.879   1.555
   62ST     H0N  999   0.851   2.839   1.500
   62ST     C0O 1000   0.804   2.813   1.572
   62ST     H0P 1001   0.797   2.835   1.610
   62ST     H0Q 1002   0.811   2.772   1.582
   62ST     C0R 1003   0.751   2.818   1.533
   62ST     H0S 1004   0.723   2.785   1.543
   62ST     H0T 1005   0.762   2.813   1.492
   62ST     C0U 1006   0.721   2.875   1.541
   62ST     H0V 1007   0.701   2.886   1.504
   62ST     H0W 1008   0.750   2.906   1.548
   62ST     C0X 1009   0.678   2.873   1.589
   62ST     H0Y 1010   0.680   2.835   1.608
   62ST     H0Z 1011   0.688   2.903   1.618
   62ST     C10 1012   0.618   2.884   1.568
   62ST     H11 1013   0.606   2.925   1.576
   62ST     H12 1014   0.616   2.878   1.524
   62ST     C13 1015   0.575   2.843   1.596
   62ST     H14 1016   0.554   2.821   1.566
   62ST     H15 1017   0.597   2.815   1.621
   62ST     C16 1018   0.532   2.875   1.633
   62ST     H17 1019   0.549   2.914   1.644
   62ST     H18 1020   0.497   2.884   1.609
   62ST     C19 1021   0.516   2.842   1.686
   62ST     H1A 1022   0.546   2.812   1.694
   62ST     H1B 1023   0.516   2.869   1.721
   62ST     C1C 1024   0.459   2.814   1.680
   62ST     H1D 1025   0.438   2.832   1.647
   62ST     H1E 1026   0.464   2.772   1.671
   62ST     C1F 1027   0.425   2.820   1.733
   62ST     H1G 1028   0.429   2.785   1.757
   62ST     H1H 1029   0.440   2.853   1.757
   62ST     C1I 1030   0.365   2.830   1.720
   62ST     H1J 1031   0.342   2.795   1.729
   62ST     H1K 1032   0.360   2.838   1.678
   62ST     C1M 1033   0.342   2.878   1.753
   62ST     H1N 1034   0.314   2.900   1.729
   62ST     H1O 1035   0.375   2.905   1.763
   62ST     C1P 1036   0.315   2.859   1.804
   62ST     H1Q 1037   0.279   2.837   1.795
   62ST     H1R 1038   0.342   2.831   1.826
   62ST     C1S 1039   0.301   2.906   1.841
   62ST     H1T 1040   0.301   2.894   1.883
   62ST     H1U 1041   0.262   2.922   1.831
   62ST     H1V 1042   0.330   2.938   1.836
   63ST     H00 1043   4.508   3.316   1.135
   63ST     C01 1044   4.522   3.345   1.164
   63ST     H02 1045   4.546   3.375   1.144
   63ST     H03 1046   4.487   3.366   1.181
   63ST     C04 1047   4.554   3.317   1.208
   63ST     C05 1048   4.540   3.269   1.228
   63ST     H06 1049   4.519   3.267   1.266
   63ST     H07 1050   4.537   3.236   1.202
   63ST     C08 1051   4.603   3.345   1.230
   63ST     O09 1052   4.605   3.393   1.242
   63ST     O0A 1053   4.646   3.310   1.234
   63ST     C0B 1054   4.694   3.324   1.205
   63ST     H0C 1055   4.691   3.309   1.163
   63ST     H0D 1056   4.697   3.367   1.203
   63ST     C0E 1057   4.745   3.299   1.234
   63ST     H0F 1058   4.776   3.290   1.204
   63ST     H0G 1059   4.734   3.261   1.252
   63ST     C0H 1060   4.768   3.338   1.278
   63ST     H0I 1061   4.788   3.315   1.309
   63ST     H0J 1062   4.736   3.361   1.297
   63ST     C0K 1063   4.811   3.381   1.252
   63ST     H0M 1064   4.804   3.385   1.209
   63ST     H0N 1065   4.806   3.420   1.269
   63ST     C0O 1066   4.873   3.362   1.262
   63ST     H0P 1067   4.888   3.340   1.227
   63ST     H0Q 1068   4.875   3.334   1.295
   63ST     C0R 1069   4.913   3.413   1.274
   63ST     H0S 1070   4.947   3.400   1.299
   63ST     H0T 1071   4.892   3.443   1.296
   63ST     C0U 1072   4.937   3.438   1.219
   63ST     H0V 1073   4.944   3.481   1.225
   63ST     H0W 1074   4.906   3.436   1.188
   63ST     C0X 1075   4.991   3.409   1.200
   63ST     H0Y 1076   4.999   3.376   1.227
   63ST     H0Z 1077   4.985   3.392   1.161
   63ST     C10 1078   5.041   3.449   1.200
   63ST     H11 1079   5.049   3.462   1.159
   63ST     H12 1080   5.032   3.485   1.223
   63ST     C13 1081   5.094   3.421   1.224
   63ST     H14 1082   5.109   3.444   1.257
   63ST     H15 1083   5.084   3.382   1.240
   63ST     C16 1084   5.141   3.415   1.179
   63ST     H17 1085   5.123   3.416   1.139
   63ST     H18 1086   5.168   3.449   1.182
   63ST     C19 1087   5.175   3.360   1.187
   63ST     H1A 1088   5.152   3.332   1.211
   63ST     H1B 1089   5.181   3.341   1.148
   63ST     C1C 1090   5.232   3.371   1.214
   63ST     H1D 1091   5.241   3.413   1.213
   63ST     H1E 1092   5.230   3.360   1.256
   63ST     C1F 1093   5.278   3.338   1.186
   63ST     H1G 1094   5.285   3.301   1.209
   63ST     H1H 1095   5.265   3.326   1.146
   63ST     C1I 1096   5.331   3.371   1.183
   63ST     H1J 1097   5.359   3.356   1.211
   63ST     H1K 1098   5.323   3.412   1.193
   63ST     C1M 1099   5.354   3.368   1.126
   63ST     H1N 1100   5.372   3.407   1.116
   63ST     H1O 1101   5.323   3.362   1.097
   63ST     C1P 1102   5.397   3.324   1.121
   63ST     H1Q 1103   5.431   3.334   1.145
   63ST     H1R 1104   5.381   3.287   1.137
   63ST     C1S 1105   5.414   3.316   1.063
   63ST     H1T 1106   5.427   3.275   1.056
   63ST     H1U 1107   5.446   3.342   1.053
   63ST     H1V 1108   5.381   3.324   1.036
   64ST     H00 1109   0.755   2.437   1.107
   64ST     C01 1110   0.742   2.402   1.130
   64ST     H02 1111   0.711   2.382   1.107
   64ST     H03 1112   0.776   2.375   1.135
   64ST     C04 1113   0.719   2.420   1.184
   64ST     C05 1114   0.741   2.459   1.213
   64ST     H06 1115   0.767   2.449   1.247
   64ST     H07 1116   0.745   2.498   1.197
   64ST     C08 1117   0.671   2.391   1.205
   64ST     O09 1118   0.664   2.342   1.204
   64ST     O0A 1119   0.633   2.427   1.225
   64ST     C0B 1120   0.580   2.425   1.201
   64ST     H0C 1121   0.580   2.451   1.165
   64ST     H0D 1122   0.571   2.386   1.188
   64ST     C0E 1123   0.537   2.445   1.243
   64ST     H0F 1124   0.504   2.465   1.222
   64ST     H0G 1125   0.555   2.476   1.269
   64ST     C0H 1126   0.514   2.397   1.278
   64ST     H0I 1127   0.502   2.412   1.317
   64ST     H0J 1128   0.547   2.368   1.286
   64ST     C0K 1129   0.464   2.368   1.249
   64ST     H0M 1130   0.465   2.375   1.206
   64ST     H0N 1131   0.467   2.325   1.255
   64ST     C0O 1132   0.406   2.388   1.274
   64ST     H0P 1133   0.390   2.420   1.248
   64ST     H0Q 1134   0.412   2.406   1.313
   64ST     C0R 1135   0.362   2.339   1.278
   64ST     H0S 1136   0.334   2.347   1.311
   64ST     H0T 1137   0.383   2.302   1.287
   64ST     C0U 1138   0.329   2.332   1.223
   64ST     H0V 1139   0.317   2.290   1.218
   64ST     H0W 1140   0.355   2.341   1.189
   64ST     C0X 1141   0.277   2.370   1.221
   64ST     H0Y 1142   0.277   2.395   1.256
   64ST     H0Z 1143   0.280   2.396   1.187
   64ST     C10 1144   0.223   2.336   1.218
   64ST     H11 1145   0.208   2.335   1.177
   64ST     H12 1146   0.231   2.294   1.229
   64ST     C13 1147   0.177   2.360   1.257
   64ST     H14 1148   0.164   2.330   1.285
   64ST     H15 1149   0.193   2.392   1.280
   64ST     C16 1150   0.126   2.382   1.223
   64ST     H17 1151   0.138   2.391   1.182
   64ST     H18 1152   0.096   2.351   1.221
   64ST     C19 1153   0.100   2.435   1.250
   64ST     H1A 1154   0.129   2.453   1.277
   64ST     H1B 1155   0.091   2.465   1.219
   64ST     C1C 1156   0.046   2.422   1.282
   64ST     H1D 1157   0.032   2.382   1.271
   64ST     H1E 1158   0.055   2.420   1.325
   64ST     C1F 1159   0.001   2.465   1.272
   64ST     H1G 1160   0.001   2.494   1.304
   64ST     H1H 1161   0.010   2.486   1.235
   64ST     C1I 1162  -0.055   2.439   1.268
   64ST     H1J 1163  -0.078   2.448   1.304
   64ST     H1K 1164  -0.051   2.396   1.266
   64ST     C1M 1165  -0.085   2.459   1.218
   64ST     H1N 1166  -0.109   2.426   1.202
   64ST     H1O 1167  -0.057   2.471   1.188
   64ST     C1P 1168  -0.122   2.506   1.232
   64ST     H1Q 1169  -0.154   2.492   1.258
   64ST     H1R 1170  -0.100   2.536   1.255
   64ST     C1S 1171  -0.146   2.531   1.182
   64ST     H1T 1172  -0.154   2.573   1.188
   64ST     H1U 1173  -0.182   2.512   1.170
   64ST     H1V 1174  -0.118   2.528   1.148
   65LA     H00 1175   0.323   1.743   0.940
   65LA     C01 1176   0.298   1.708   0.941
   65LA     H02 1177   0.311   1.682   0.974
   65LA     H03 1178   0.257   1.720   0.948
   65LA     C04 1179   0.303   1.678   0.889
   65LA     C05 1180   0.338   1.639   0.881
   65LA     H06 1181   0.342   1.606   0.910
   65LA     H07 1182   0.372   1.646   0.855
   65LA     C08 1183   0.266   1.692   0.845
   65LA     O09 1184   0.279   1.704   0.800
   65LA     O0A 1185   0.214   1.690   0.861
   65LA     C0B 1186   0.186   1.643   0.849
   65LA     H0C 1187   0.158   1.634   0.881
   65LA     H0D 1188   0.213   1.610   0.845
   65LA     C0E 1189   0.154   1.652   0.795
   65LA     H0F 1190   0.177   1.680   0.769
   65LA     H0G 1191   0.152   1.614   0.773
   65LA     C0H 1192   0.096   1.674   0.805
   65LA     H0I 1193   0.085   1.668   0.847
   65LA     H0J 1194   0.095   1.717   0.798
   65LA     C0K 1195   0.052   1.644   0.767
   65LA     H0M 1196   0.065   1.647   0.725
   65LA     H0N 1197   0.051   1.601   0.777
   65LA     C0O 1198  -0.008   1.670   0.774
   65LA     H0P 1199  -0.014   1.682   0.815
   65LA     H0Q 1200  -0.011   1.707   0.750
   65LA     C0R 1201  -0.054   1.629   0.755
   65LA     H0S 1202  -0.052   1.623   0.712
   65LA     H0T 1203  -0.047   1.590   0.774
   65LA     C0U 1204  -0.113   1.650   0.771
   65LA     H0V 1205  -0.109   1.682   0.801
   65LA     H0W 1206  -0.132   1.668   0.736
   65LA     C0X 1207  -0.150   1.603   0.793
   65LA     H0Y 1208  -0.129   1.565   0.787
   65LA     H0Z 1209  -0.155   1.608   0.836
   65LA     C10 1210  -0.206   1.602   0.765
   65LA     H11 1211  -0.201   1.591   0.722
   65LA     H12 1212  -0.224   1.642   0.765
   65LA     C13 1213  -0.245   1.561   0.792
   65LA     H14 1214  -0.281   1.582   0.806
   65LA     H15 1215  -0.226   1.544   0.827
   65LA     C16 1216  -0.262   1.516   0.753
   65LA     H17 1217  -0.258   1.477   0.773
   65LA     H18 1218  -0.235   1.515   0.719
   65LA     C19 1219  -0.319   1.523   0.734
   65LA     H1A 1220  -0.348   1.512   0.765
   65LA     H1B 1221  -0.327   1.498   0.699
   65LA     H1C 1222  -0.327   1.564   0.722
   66EH     H00 1223   0.713   1.100   0.758
   66EH     C01 1224   0.681   1.104   0.788
   66EH     H02 1225   0.700   1.104   0.828
   66EH     H03 1226   0.662   1.143   0.783
   66EH     C04 1227   0.640   1.059   0.784
   66EH     C05 1228   0.655   1.008   0.776
   66EH     H06 1229   0.672   0.985   0.807
   66EH     H07 1230   0.662   0.993   0.735
   66EH     C08 1231   0.582   1.072   0.790
   66EH     O09 1232   0.565   1.106   0.821
   66EH     O0A 1233   0.551   1.044   0.754
   66EH     C0B 1234   0.495   1.061   0.749
   66EH     H0C 1235   0.494   1.097   0.724
   66EH     H0D 1236   0.479   1.071   0.788
   66EH     C0E 1237   0.461   1.014   0.722
   66EH     H0F 1238   0.488   0.987   0.700
   66EH     C0G 1239   0.431   0.980   0.766
   66EH     H0H 1240   0.460   0.958   0.790
   66EH     H0I 1241   0.405   0.951   0.747
   66EH     C0J 1242   0.396   1.017   0.804
   66EH     H0K 1243   0.406   1.010   0.846
   66EH     H0M 1244   0.353   1.009   0.799
   66EH     H0N 1245   0.404   1.059   0.796
   66EH     C0O 1246   0.419   1.038   0.679
   66EH     H0P 1247   0.385   1.056   0.701
   66EH     H0Q 1248   0.438   1.071   0.657
   66EH     C0R 1249   0.399   0.995   0.639
   66EH     H0S 1250   0.397   0.956   0.660
   66EH     H0T 1251   0.427   0.990   0.607
   66EH     C0U 1252   0.343   1.009   0.616
   66EH     H0V 1253   0.312   0.989   0.639
   66EH     H0W 1254   0.336   1.052   0.620
   66EH     C0X 1255   0.338   0.993   0.555
   66EH     H0Y 1256   0.298   1.002   0.540
   66EH     H0Z 1257   0.346   0.950   0.550
   66EH     H10 1258   0.368   1.015   0.531
   67LA     H00 1259   1.179   0.624   0.791
   67LA     C01 1260   1.161   0.586   0.798
   67LA     H02 1261   1.173   0.573   0.838
   67LA     H03 1262   1.118   0.589   0.797
   67LA     C04 1263   1.180   0.546   0.757
   67LA     C05 1264   1.224   0.516   0.764
   67LA     H06 1265   1.229   0.493   0.801
   67LA     H07 1266   1.259   0.524   0.741
   67LA     C08 1267   1.149   0.540   0.708
   67LA     O09 1268   1.166   0.544   0.663
   67LA     O0A 1269   1.097   0.530   0.719
   67LA     C0B 1270   1.081   0.476   0.716
   67LA     H0C 1271   1.051   0.469   0.747
   67LA     H0D 1272   1.115   0.450   0.725
   67LA     C0E 1273   1.057   0.463   0.659
   67LA     H0F 1274   1.077   0.489   0.629
   67LA     H0G 1275   1.066   0.422   0.648
   67LA     C0H 1276   0.995   0.473   0.657
   67LA     H0I 1277   0.979   0.475   0.697
   67LA     H0J 1278   0.986   0.511   0.638
   67LA     C0K 1279   0.965   0.425   0.624
   67LA     H0M 1280   0.983   0.421   0.584
   67LA     H0N 1281   0.970   0.387   0.645
   67LA     C0O 1282   0.900   0.437   0.617
   67LA     H0P 1283   0.885   0.457   0.653
   67LA     H0Q 1284   0.894   0.465   0.584
   67LA     C0R 1285   0.867   0.383   0.606
   67LA     H0S 1286   0.877   0.367   0.566
   67LA     H0T 1287   0.879   0.352   0.635
   67LA     C0U 1288   0.804   0.393   0.609
   67LA     H0V 1289   0.796   0.430   0.629
   67LA     H0W 1290   0.787   0.397   0.569
   67LA     C0X 1291   0.774   0.345   0.640
   67LA     H0Y 1292   0.802   0.312   0.647
   67LA     H0Z 1293   0.760   0.359   0.679
   67LA     C10 1294   0.724   0.323   0.607
   67LA     H11 1295   0.738   0.304   0.570
   67LA     H12 1296   0.699   0.357   0.594
   67LA     C13 1297   0.690   0.282   0.640
   67LA     H14 1298   0.649   0.297   0.644
   67LA     H15 1299   0.706   0.279   0.680
   67LA     C16 1300   0.690   0.227   0.614
   67LA     H17 1301   0.698   0.196   0.644
   67LA     H18 1302   0.721   0.224   0.584
   67LA     C19 1303   0.636   0.215   0.587
   67LA     H1A 1304   0.605   0.205   0.617
   67LA     H1B 1305   0.639   0.181   0.560
   67LA     H1C 1306   0.622   0.249   0.564
   68ST     H00 1307   1.986   0.264   0.378
   68ST     C01 1308   1.995   0.283   0.416
   68ST     H02 1309   2.014   0.255   0.442
   68ST     H03 1310   2.022   0.317   0.409
   68ST     C04 1311   1.943   0.303   0.442
   68ST     C05 1312   1.903   0.325   0.413
   68ST     H06 1313   1.899   0.369   0.412
   68ST     H07 1314   1.884   0.304   0.383
   68ST     C08 1315   1.937   0.298   0.502
   68ST     O09 1316   1.972   0.309   0.534
   68ST     O0A 1317   1.887   0.278   0.516
   68ST     C0B 1318   1.886   0.229   0.547
   68ST     H0C 1319   1.888   0.194   0.519
   68ST     H0D 1320   1.921   0.227   0.572
   68ST     C0E 1321   1.833   0.227   0.582
   68ST     H0F 1322   1.821   0.185   0.587
   68ST     H0G 1323   1.801   0.247   0.560
   68ST     C0H 1324   1.842   0.254   0.639
   68ST     H0I 1325   1.804   0.270   0.653
   68ST     H0J 1326   1.869   0.288   0.635
   68ST     C0K 1327   1.865   0.212   0.683
   68ST     H0M 1328   1.886   0.179   0.662
   68ST     H0N 1329   1.895   0.232   0.707
   68ST     C0O 1330   1.818   0.188   0.721
   68ST     H0P 1331   1.804   0.149   0.706
   68ST     H0Q 1332   1.784   0.215   0.721
   68ST     C0R 1333   1.839   0.180   0.784
   68ST     H0S 1334   1.805   0.184   0.811
   68ST     H0T 1335   1.867   0.211   0.793
   68ST     C0U 1336   1.867   0.122   0.792
   68ST     H0V 1337   1.897   0.125   0.824
   68ST     H0W 1338   1.888   0.111   0.756
   68ST     C0X 1339   1.823   0.077   0.808
   68ST     H0Y 1340   1.784   0.094   0.806
   68ST     H0Z 1341   1.824   0.046   0.778
   68ST     C10 1342   1.834   0.052   0.866
   68ST     H11 1343   1.854   0.014   0.862
   68ST     H12 1344   1.861   0.079   0.888
   68ST     C13 1345   1.779   0.045   0.900
   68ST     H14 1346   1.781   0.067   0.937
   68ST     H15 1347   1.746   0.062   0.877
   68ST     C16 1348   1.767  -0.017   0.912
   68ST     H17 1349   1.788  -0.043   0.883
   68ST     H18 1350   1.782  -0.028   0.952
   68ST     C19 1351   1.703  -0.031   0.910
   68ST     H1A 1352   1.682   0.001   0.888
   68ST     H1B 1353   1.696  -0.068   0.888
   68ST     C1C 1354   1.678  -0.035   0.969
   68ST     H1D 1355   1.709  -0.040   0.998
   68ST     H1E 1356   1.657   0.001   0.978
   68ST     C1F 1357   1.638  -0.084   0.973
   68ST     H1G 1358   1.597  -0.071   0.967
   68ST     H1H 1359   1.646  -0.113   0.941
   68ST     C1I 1360   1.643  -0.113   1.028
   68ST     H1J 1361   1.608  -0.104   1.052
   68ST     H1K 1362   1.677  -0.098   1.049
   68ST     C1M 1363   1.647  -0.174   1.021
   68ST     H1N 1364   1.674  -0.190   1.051
   68ST     H1O 1365   1.665  -0.183   0.982
   68ST     C1P 1366   1.593  -0.202   1.025
   68ST     H1Q 1367   1.578  -0.198   1.066
   68ST     H1R 1368   1.564  -0.181   1.000
   68ST     C1S 1369   1.596  -0.261   1.009
   68ST     H1T 1370   1.558  -0.275   0.994
   68ST     H1U 1371   1.606  -0.285   1.043
   68ST     H1V 1372   1.626  -0.267   0.979
   69EH     H00 1373   1.461   4.563   1.546
   69EH     C01 1374   1.432   4.582   1.519
   69EH     H02 1375   1.415   4.552   1.492
   69EH     H03 1376   1.400   4.598   1.543
   69EH     C04 1377   1.459   4.627   1.487
   69EH     C05 1378   1.508   4.621   1.465
   69EH     H06 1379   1.513   4.598   1.430
   69EH     H07 1380   1.543   4.629   1.488
   69EH     C08 1381   1.429   4.678   1.479
   69EH     O09 1382   1.381   4.681   1.473
   69EH     O0A 1383   1.462   4.722   1.483
   69EH     C0B 1384   1.437   4.774   1.487
   69EH     H0C 1385   1.422   4.780   1.528
   69EH     H0D 1386   1.403   4.776   1.461
   69EH     C0E 1387   1.479   4.820   1.473
   69EH     H0F 1388   1.519   4.804   1.479
   69EH     C0G 1389   1.472   4.838   1.412
   69EH     H0H 1390   1.485   4.806   1.386
   69EH     H0I 1391   1.499   4.872   1.404
   69EH     C0J 1392   1.413   4.855   1.399
   69EH     H0K 1393   1.398   4.832   1.364
   69EH     H0M 1394   1.410   4.898   1.390
   69EH     H0N 1395   1.387   4.846   1.433
   69EH     C0O 1396   1.472   4.871   1.512
   69EH     H0P 1397   1.437   4.894   1.500
   69EH     H0Q 1398   1.463   4.857   1.553
   69EH     C0R 1399   1.523   4.907   1.513
   69EH     H0S 1400   1.541   4.907   1.473
   69EH     H0T 1401   1.552   4.891   1.540
   69EH     C0U 1402   1.509   4.966   1.529
   69EH     H0V 1403   1.503   4.990   1.493
   69EH     H0W 1404   1.471   4.966   1.550
   69EH     C0X 1405   1.554   4.991   1.564
   69EH     H0Y 1406   1.544   5.033   1.574
   69EH     H0Z 1407   1.592   4.991   1.544
   69EH     H10 1408   1.558   4.969   1.602
   70LA     H00 1409   1.944   0.522   1.798
   70LA     C01 1410   1.981   0.500   1.793
   70LA     H02 1411   2.014   0.524   1.809
   70LA     H03 1412   1.978   0.463   1.815
   70LA     C04 1413   1.991   0.489   1.734
   70LA     C05 1414   2.019   0.522   1.703
   70LA     H06 1415   2.059   0.536   1.716
   70LA     H07 1416   2.000   0.546   1.674
   70LA     C08 1417   1.968   0.440   1.711
   70LA     O09 1418   1.941   0.438   1.671
   70LA     O0A 1419   1.983   0.396   1.739
   70LA     C0B 1420   2.027   0.367   1.719
   70LA     H0C 1421   2.050   0.351   1.752
   70LA     H0D 1422   2.053   0.393   1.696
   70LA     C0E 1423   2.006   0.320   1.683
   70LA     H0F 1424   1.968   0.332   1.664
   70LA     H0G 1425   2.034   0.313   1.650
   70LA     C0H 1426   1.997   0.267   1.716
   70LA     H0I 1427   2.018   0.270   1.754
   70LA     H0J 1428   1.955   0.262   1.725
   70LA     C0K 1429   2.019   0.215   1.684
   70LA     H0M 1430   2.001   0.214   1.644
   70LA     H0N 1431   2.063   0.218   1.678
   70LA     C0O 1432   2.006   0.159   1.716
   70LA     H0P 1433   2.010   0.165   1.759
   70LA     H0Q 1434   1.964   0.147   1.708
   70LA     C0R 1435   2.045   0.111   1.697
   70LA     H0S 1436   2.036   0.100   1.656
   70LA     H0T 1437   2.087   0.125   1.698
   70LA     C0U 1438   2.039   0.059   1.735
   70LA     H0V 1439   2.019   0.071   1.772
   70LA     H0W 1440   2.014   0.030   1.716
   70LA     C0X 1441   2.096   0.033   1.749
   70LA     H0Y 1442   2.127   0.052   1.724
   70LA     H0Z 1443   2.107   0.041   1.791
   70LA     C10 1444   2.096  -0.029   1.739
   70LA     H11 1445   2.092  -0.037   1.696
   70LA     H12 1446   2.062  -0.047   1.758
   70LA     C13 1447   2.149  -0.056   1.759
   70LA     H14 1448   2.140  -0.087   1.789
   70LA     H15 1449   2.174  -0.027   1.779
   70LA     C16 1450   2.181  -0.082   1.713
   70LA     H17 1451   2.223  -0.071   1.716
   70LA     H18 1452   2.166  -0.067   1.675
   70LA     C19 1453   2.177  -0.143   1.715
   70LA     H1A 1454   2.201  -0.160   1.746
   70LA     H1B 1455   2.190  -0.160   1.677
   70LA     H1C 1456   2.135  -0.156   1.722
   71LA     H00 1457   1.296   4.573   1.847
   71LA     C01 1458   1.324   4.600   1.867
   71LA     H02 1459   1.364   4.584   1.862
   71LA     H03 1460   1.321   4.639   1.848
   71LA     C04 1461   1.310   4.604   1.925
   71LA     C05 1462   1.332   4.572   1.962
   71LA     H06 1463   1.375   4.567   1.964
   71LA     H07 1464   1.308   4.542   1.981
   71LA     C08 1465   1.272   4.645   1.942
   71LA     O09 1466   1.232   4.638   1.969
   71LA     O0A 1467   1.287   4.694   1.925
   71LA     C0B 1468   1.314   4.727   1.962
   71LA     H0C 1469   1.344   4.751   1.941
   71LA     H0D 1470   1.335   4.702   1.991
   71LA     C0E 1471   1.273   4.765   1.991
   71LA     H0F 1472   1.234   4.745   1.994
   71LA     H0G 1473   1.287   4.772   2.032
   71LA     C0H 1474   1.267   4.820   1.961
   71LA     H0I 1475   1.299   4.826   1.933
   71LA     H0J 1476   1.230   4.820   1.937
   71LA     C0K 1477   1.265   4.870   2.003
   71LA     H0M 1478   1.234   4.863   2.033
   71LA     H0N 1479   1.303   4.873   2.024
   71LA     C0O 1480   1.253   4.927   1.972
   71LA     H0P 1481   1.273   4.927   1.933
   71LA     H0Q 1482   1.210   4.931   1.964
   71LA     C0R 1483   1.273   4.978   2.007
   71LA     H0S 1484   1.249   4.982   2.043
   71LA     H0T 1485   1.314   4.971   2.021
   71LA     C0U 1486   1.271   5.032   1.973
   71LA     H0V 1487   1.268   5.023   1.931
   71LA     H0W 1488   1.235   5.055   1.984
   71LA     C0X 1489   1.323   5.069   1.984
   71LA     H0Y 1490   1.346   5.052   2.016
   71LA     H0Z 1491   1.348   5.068   1.948
   71LA     C10 1492   1.307   5.128   1.998
   71LA     H11 1493   1.286   5.129   2.036
   71LA     H12 1494   1.279   5.143   1.968
   71LA     C13 1495   1.358   5.166   2.000
   71LA     H14 1496   1.353   5.198   1.971
   71LA     H15 1497   1.393   5.143   1.988
   71LA     C16 1498   1.366   5.190   2.056
   71LA     H17 1499   1.407   5.185   2.068
   71LA     H18 1500   1.342   5.168   2.085
   71LA     C19 1501   1.350   5.249   2.058
   71LA     H1A 1502   1.380   5.274   2.039
   71LA     H1B 1503   1.345   5.263   2.099
   71LA     H1C 1504   1.312   5.256   2.037
   72EH     H00 1505   0.664   4.800   1.535
   72EH     C01 1506   0.674   4.820   1.498
   72EH     H02 1507   0.692   4.791   1.470
   72EH     H03 1508   0.637   4.834   1.480
   72EH     C04 1509   0.712   4.867   1.508
   72EH     C05 1510   0.754   4.863   1.541
   72EH     H06 1511   0.789   4.842   1.530
   72EH     H07 1512   0.748   4.871   1.584
   72EH     C08 1513   0.703   4.918   1.478
   72EH     O09 1514   0.687   4.921   1.432
   72EH     O0A 1515   0.712   4.962   1.510
   72EH     C0B 1516   0.693   5.014   1.489
   72EH     H0C 1517   0.650   5.017   1.494
   72EH     H0D 1518   0.702   5.016   1.447
   72EH     C0E 1519   0.722   5.061   1.521
   72EH     H0F 1520   0.736   5.046   1.560
   72EH     C0G 1521   0.773   5.082   1.488
   72EH     H0H 1522   0.804   5.051   1.487
   72EH     H0I 1523   0.790   5.117   1.509
   72EH     C0J 1524   0.757   5.098   1.429
   72EH     H0K 1525   0.783   5.078   1.400
   72EH     H0M 1526   0.761   5.142   1.423
   72EH     H0N 1527   0.716   5.087   1.421
   72EH     C0O 1528   0.681   5.109   1.533
   72EH     H0P 1529   0.675   5.133   1.496
   72EH     H0Q 1530   0.642   5.093   1.543
   72EH     C0R 1531   0.702   5.147   1.579
   72EH     H0S 1532   0.745   5.149   1.577
   72EH     H0T 1533   0.691   5.130   1.617
   72EH     C0U 1534   0.678   5.204   1.574
   72EH     H0V 1535   0.706   5.230   1.553
   72EH     H0W 1536   0.642   5.203   1.550
   72EH     C0X 1537   0.665   5.228   1.631
   72EH     H0Y 1538   0.649   5.269   1.627
   72EH     H0Z 1539   0.700   5.229   1.656
   72EH     H10 1540   0.635   5.204   1.651
   73EH     H00 1541   1.261   0.538   1.528
   73EH     C01 1542   1.262   0.515   1.565
   73EH     H02 1543   1.273   0.542   1.598
   73EH     H03 1544   1.222   0.499   1.573
   73EH     C04 1545   1.302   0.469   1.561
   73EH     C05 1546   1.350   0.475   1.538
   73EH     H06 1547   1.382   0.496   1.559
   73EH     H07 1548   1.355   0.470   1.496
   73EH     C08 1549   1.287   0.416   1.585
   73EH     O09 1550   1.261   0.410   1.626
   73EH     O0A 1551   1.304   0.374   1.553
   73EH     C0B 1552   1.282   0.321   1.565
   73EH     H0C 1553   1.242   0.318   1.551
   73EH     H0D 1554   1.281   0.316   1.608
   73EH     C0E 1555   1.319   0.276   1.538
   73EH     H0F 1556   1.341   0.294   1.505
   73EH     C0G 1557   1.360   0.253   1.580
   73EH     H0H 1558   1.390   0.283   1.590
   73EH     H0I 1559   1.383   0.220   1.562
   73EH     C0J 1560   1.332   0.233   1.633
   73EH     H0K 1561   1.350   0.251   1.668
   73EH     H0M 1562   1.335   0.189   1.637
   73EH     H0N 1563   1.290   0.243   1.632
   73EH     C0O 1564   1.282   0.229   1.514
   73EH     H0P 1565   1.268   0.203   1.547
   73EH     H0Q 1566   1.246   0.246   1.496
   73EH     C0R 1567   1.313   0.194   1.472
   73EH     H0S 1568   1.355   0.192   1.483
   73EH     H0T 1569   1.312   0.214   1.433
   73EH     C0U 1570   1.290   0.137   1.467
   73EH     H0V 1571   1.313   0.110   1.492
   73EH     H0W 1572   1.249   0.137   1.482
   73EH     C0X 1573   1.290   0.117   1.407
   73EH     H0Y 1574   1.275   0.075   1.405
   73EH     H0Z 1575   1.331   0.117   1.391
   73EH     H10 1576   1.265   0.142   1.382
   74LA     H00 1577   1.986   0.738   2.070
   74LA     C01 1578   1.951   0.761   2.080
   74LA     H02 1579   1.961   0.803   2.078
   74LA     H03 1580   1.920   0.752   2.051
   74LA     C04 1581   1.932   0.747   2.135
   74LA     C05 1582   1.948   0.773   2.179
   74LA     H06 1583   1.946   0.817   2.180
   74LA     H07 1584   1.975   0.754   2.207
   74LA     C08 1585   1.894   0.702   2.141
   74LA     O09 1586   1.900   0.664   2.171
   74LA     O0A 1587   1.851   0.709   2.110
   74LA     C0B 1588   1.805   0.730   2.135
   74LA     H0C 1589   1.784   0.756   2.107
   74LA     H0D 1590   1.817   0.755   2.169
   74LA     C0E 1591   1.767   0.684   2.153
   74LA     H0F 1592   1.792   0.648   2.163
   74LA     H0G 1593   1.747   0.695   2.190
   74LA     C0H 1594   1.725   0.668   2.109
   74LA     H0I 1595   1.723   0.700   2.079
   74LA     H0J 1596   1.738   0.632   2.088
   74LA     C0K 1597   1.666   0.658   2.134
   74LA     H0M 1598   1.669   0.629   2.167
   74LA     H0N 1599   1.651   0.696   2.153
   74LA     C0O 1600   1.623   0.637   2.089
   74LA     H0P 1601   1.631   0.657   2.051
   74LA     H0Q 1602   1.628   0.595   2.082
   74LA     C0R 1603   1.562   0.649   2.107
   74LA     H0S 1604   1.551   0.624   2.141
   74LA     H0T 1605   1.558   0.691   2.121
   74LA     C0U 1606   1.520   0.638   2.059
   74LA     H0V 1607   1.542   0.637   2.021
   74LA     H0W 1608   1.502   0.599   2.065
   74LA     C0X 1609   1.475   0.683   2.057
   74LA     H0Y 1610   1.478   0.709   2.092
   74LA     H0Z 1611   1.482   0.709   2.022
   74LA     C10 1612   1.417   0.658   2.054
   74LA     H11 1613   1.408   0.637   2.091
   74LA     H12 1614   1.416   0.628   2.022
   74LA     C13 1615   1.373   0.702   2.043
   74LA     H14 1616   1.352   0.693   2.006
   74LA     H15 1617   1.392   0.741   2.037
   74LA     C16 1618   1.333   0.706   2.089
   74LA     H17 1619   1.327   0.747   2.100
   74LA     H18 1620   1.349   0.685   2.124
   74LA     C19 1621   1.279   0.681   2.074
   74LA     H1A 1622   1.256   0.707   2.048
   74LA     H1B 1623   1.255   0.674   2.110
   74LA     H1C 1624   1.284   0.642   2.054
   75EH     H00 1625   2.136   0.813   2.508
   75EH     C01 1626   2.116   0.851   2.498
   75EH     H02 1627   2.132   0.866   2.460
   75EH     H03 1628   2.074   0.844   2.493
   75EH     C04 1629   2.126   0.892   2.542
   75EH     C05 1630   2.174   0.899   2.566
   75EH     H06 1631   2.206   0.919   2.545
   75EH     H07 1632   2.186   0.874   2.599
   75EH     C08 1633   2.081   0.928   2.559
   75EH     O09 1634   2.047   0.945   2.529
   75EH     O0A 1635   2.080   0.935   2.614
   75EH     C0B 1636   2.031   0.959   2.637
   75EH     H0C 1637   2.000   0.929   2.638
   75EH     H0D 1638   2.018   0.991   2.611
   75EH     C0E 1639   2.044   0.982   2.695
   75EH     H0F 1640   2.080   0.961   2.711
   75EH     C0G 1641   2.056   1.044   2.693
   75EH     H0H 1642   2.094   1.051   2.672
   75EH     H0I 1643   2.061   1.060   2.733
   75EH     C0J 1644   2.010   1.076   2.663
   75EH     H0K 1645   2.026   1.100   2.631
   75EH     H0M 1646   1.989   1.102   2.692
   75EH     H0N 1647   1.981   1.048   2.647
   75EH     C0O 1648   1.995   0.970   2.735
   75EH     H0P 1649   1.963   0.998   2.727
   75EH     H0Q 1650   1.979   0.930   2.727
   75EH     C0R 1651   2.013   0.974   2.795
   75EH     H0S 1652   2.043   1.005   2.799
   75EH     H0T 1653   2.031   0.937   2.808
   75EH     C0U 1654   1.965   0.987   2.832
   75EH     H0V 1655   1.963   1.031   2.839
   75EH     H0W 1656   1.927   0.977   2.812
   75EH     C0X 1657   1.968   0.957   2.887
   75EH     H0Y 1658   1.935   0.968   2.913
   75EH     H0Z 1659   2.006   0.966   2.908
   75EH     H10 1660   1.967   0.914   2.881
   76EH     H00 1661   2.468   0.776   2.652
   76EH     C01 1662   2.468   0.794   2.612
   76EH     H02 1663   2.431   0.784   2.591
   76EH     H03 1664   2.470   0.838   2.616
   76EH     C04 1665   2.517   0.774   2.580
   76EH     C05 1666   2.532   0.722   2.580
   76EH     H06 1667   2.509   0.693   2.558
   76EH     H07 1668   2.558   0.707   2.611
   76EH     C08 1669   2.547   0.813   2.546
   76EH     O09 1670   2.527   0.850   2.522
   76EH     O0A 1671   2.602   0.803   2.548
   76EH     C0B 1672   2.636   0.845   2.527
   76EH     H0C 1673   2.639   0.878   2.555
   76EH     H0D 1674   2.619   0.861   2.490
   76EH     C0E 1675   2.695   0.821   2.516
   76EH     H0F 1676   2.700   0.785   2.540
   76EH     C0G 1677   2.701   0.804   2.454
   76EH     H0H 1678   2.675   0.770   2.446
   76EH     H0I 1679   2.742   0.791   2.447
   76EH     C0J 1680   2.686   0.852   2.416
   76EH     H0K 1681   2.656   0.840   2.386
   76EH     H0M 1682   2.722   0.866   2.394
   76EH     H0N 1683   2.670   0.886   2.438
   76EH     C0O 1684   2.740   0.863   2.532
   76EH     H0P 1685   2.743   0.894   2.501
   76EH     H0Q 1686   2.729   0.884   2.569
   76EH     C0R 1687   2.796   0.835   2.540
   76EH     H0S 1688   2.800   0.802   2.512
   76EH     H0T 1689   2.798   0.819   2.580
   76EH     C0U 1690   2.843   0.875   2.531
   76EH     H0V 1691   2.857   0.872   2.490
   76EH     H0W 1692   2.828   0.916   2.536
   76EH     C0X 1693   2.890   0.865   2.571
   76EH     H0Y 1694   2.923   0.892   2.564
   76EH     H0Z 1695   2.905   0.824   2.568
   76EH     H10 1696   2.877   0.870   2.613
   77EH     H00 1697   2.419   0.428   2.555
   77EH     C01 1698   2.443   0.420   2.591
   77EH     H02 1699   2.485   0.420   2.581
   77EH     H03 1700   2.436   0.452   2.620
   77EH     C04 1701   2.426   0.366   2.615
   77EH     C05 1702   2.418   0.322   2.585
   77EH     H06 1703   2.451   0.301   2.568
   77EH     H07 1704   2.379   0.315   2.567
   77EH     C08 1705   2.421   0.362   2.674
   77EH     O09 1706   2.449   0.385   2.707
   77EH     O0A 1707   2.377   0.330   2.689
   77EH     C0B 1708   2.361   0.332   2.745
   77EH     H0C 1709   2.339   0.369   2.752
   77EH     H0D 1710   2.396   0.332   2.770
   77EH     C0E 1711   2.324   0.282   2.758
   77EH     H0F 1712   2.307   0.267   2.721
   77EH     C0G 1713   2.359   0.235   2.785
   77EH     H0H 1714   2.387   0.219   2.755
   77EH     H0I 1715   2.332   0.202   2.797
   77EH     C0J 1716   2.391   0.256   2.835
   77EH     H0K 1717   2.433   0.247   2.831
   77EH     H0M 1718   2.376   0.237   2.872
   77EH     H0N 1719   2.387   0.299   2.839
   77EH     C0O 1720   2.275   0.299   2.797
   77EH     H0P 1721   2.290   0.303   2.838
   77EH     H0Q 1722   2.260   0.338   2.785
   77EH     C0R 1723   2.229   0.256   2.795
   77EH     H0S 1724   2.246   0.216   2.790
   77EH     H0T 1725   2.204   0.264   2.761
   77EH     C0U 1726   2.195   0.258   2.847
   77EH     H0V 1727   2.210   0.227   2.875
   77EH     H0W 1728   2.201   0.296   2.867
   77EH     C0X 1729   2.134   0.249   2.836
   77EH     H0Y 1730   2.111   0.249   2.873
   77EH     H0Z 1731   2.127   0.211   2.815
   77EH     H10 1732   2.118   0.281   2.810
   78LA     H00 1733   2.709   0.459   2.141
   78LA     C01 1734   2.710   0.428   2.170
   78LA     H02 1735   2.689   0.441   2.206
   78LA     H03 1736   2.689   0.393   2.154
   78LA     C04 1737   2.767   0.413   2.183
   78LA     C05 1738   2.794   0.436   2.223
   78LA     H06 1739   2.777   0.438   2.263
   78LA     H07 1740   2.826   0.464   2.214
   78LA     C08 1741   2.793   0.372   2.151
   78LA     O09 1742   2.836   0.377   2.128
   78LA     O0A 1743   2.764   0.326   2.150
   78LA     C0B 1744   2.780   0.285   2.186
   78LA     H0C 1745   2.744   0.265   2.200
   78LA     H0D 1746   2.799   0.303   2.221
   78LA     C0E 1747   2.819   0.245   2.157
   78LA     H0F 1748   2.842   0.267   2.126
   78LA     H0G 1749   2.848   0.230   2.185
   78LA     C0H 1750   2.787   0.197   2.130
   78LA     H0I 1751   2.747   0.195   2.146
   78LA     H0J 1752   2.783   0.205   2.087
   78LA     C0K 1753   2.817   0.141   2.140
   78LA     H0M 1754   2.859   0.144   2.126
   78LA     H0N 1755   2.819   0.132   2.183
   78LA     C0O 1756   2.788   0.091   2.108
   78LA     H0P 1757   2.745   0.097   2.109
   78LA     H0Q 1758   2.800   0.092   2.066
   78LA     C0R 1759   2.802   0.034   2.134
   78LA     H0S 1760   2.844   0.025   2.127
   78LA     H0T 1761   2.797   0.036   2.178
   78LA     C0U 1762   2.766  -0.013   2.110
   78LA     H0V 1763   2.731   0.004   2.090
   78LA     H0W 1764   2.788  -0.035   2.080
   78LA     C0X 1765   2.746  -0.054   2.155
   78LA     H0Y 1766   2.767  -0.045   2.193
   78LA     H0Z 1767   2.703  -0.048   2.163
   78LA     C10 1768   2.757  -0.114   2.139
   78LA     H11 1769   2.800  -0.121   2.138
   78LA     H12 1770   2.742  -0.122   2.099
   78LA     C13 1771   2.731  -0.154   2.180
   78LA     H14 1772   2.702  -0.180   2.159
   78LA     H15 1773   2.708  -0.132   2.210
   78LA     C16 1774   2.773  -0.189   2.208
   78LA     H17 1775   2.765  -0.189   2.251
   78LA     H18 1776   2.812  -0.171   2.203
   78LA     C19 1777   2.773  -0.246   2.187
   78LA     H1A 1778   2.739  -0.269   2.202
   78LA     H1B 1779   2.809  -0.267   2.199
   78LA     H1C 1780   2.771  -0.247   2.143
   79LA     H00 1781   3.391   4.578   2.607
   79LA     C01 1782   3.411   4.604   2.635
   79LA     H02 1783   3.446   4.583   2.652
   79LA     H03 1784   3.425   4.639   2.614
   79LA     C04 1785   3.373   4.620   2.679
   79LA     C05 1786   3.369   4.592   2.724
   79LA     H06 1787   3.405   4.582   2.747
   79LA     H07 1788   3.334   4.569   2.732
   79LA     C08 1789   3.340   4.668   2.672
   79LA     O09 1790   3.292   4.670   2.676
   79LA     O0A 1791   3.371   4.711   2.660
   79LA     C0B 1792   3.384   4.746   2.702
   79LA     H0C 1793   3.424   4.761   2.697
   79LA     H0D 1794   3.384   4.724   2.740
   79LA     C0E 1795   3.342   4.793   2.705
   79LA     H0F 1796   3.303   4.778   2.690
   79LA     H0G 1797   3.336   4.805   2.746
   79LA     C0H 1798   3.361   4.843   2.670
   79LA     H0I 1799   3.403   4.839   2.661
   79LA     H0J 1800   3.340   4.843   2.632
   79LA     C0K 1801   3.350   4.899   2.701
   79LA     H0M 1802   3.307   4.901   2.713
   79LA     H0N 1803   3.373   4.900   2.738
   79LA     C0O 1804   3.365   4.951   2.664
   79LA     H0P 1805   3.400   4.942   2.640
   79LA     H0Q 1806   3.332   4.959   2.636
   79LA     C0R 1807   3.376   5.004   2.700
   79LA     H0S 1808   3.339   5.017   2.719
   79LA     H0T 1809   3.403   4.994   2.732
   79LA     C0U 1810   3.400   5.052   2.665
   79LA     H0V 1811   3.415   5.036   2.627
   79LA     H0W 1812   3.368   5.080   2.655
   79LA     C0X 1813   3.447   5.082   2.696
   79LA     H0Y 1814   3.449   5.068   2.737
   79LA     H0Z 1815   3.486   5.072   2.678
   79LA     C10 1816   3.438   5.145   2.695
   79LA     H11 1817   3.403   5.155   2.719
   79LA     H12 1818   3.431   5.158   2.654
   79LA     C13 1819   3.489   5.175   2.719
   79LA     H14 1820   3.504   5.203   2.688
   79LA     H15 1821   3.520   5.147   2.728
   79LA     C16 1822   3.474   5.207   2.769
   79LA     H17 1823   3.504   5.199   2.800
   79LA     H18 1824   3.436   5.193   2.785
   79LA     C19 1825   3.471   5.267   2.758
   79LA     H1A 1826   3.511   5.284   2.754
   79LA     H1B 1827   3.451   5.288   2.790
   79LA     H1C 1828   3.449   5.275   2.721
   80EH     H00 1829   3.260   0.629   3.003
   80EH     C01 1830   3.220   0.619   2.988
   80EH     H02 1831   3.204   0.655   2.968
   80EH     H03 1832   3.224   0.587   2.959
   80EH     C04 1833   3.184   0.602   3.034
   80EH     C05 1834   3.183   0.627   3.082
   80EH     H06 1835   3.164   0.665   3.085
   80EH     H07 1836   3.211   0.616   3.113
   80EH     C08 1837   3.147   0.556   3.025
   80EH     O09 1838   3.124   0.546   2.983
   80EH     O0A 1839   3.144   0.523   3.070
   80EH     C0B 1840   3.118   0.471   3.062
   80EH     H0C 1841   3.146   0.444   3.042
   80EH     H0D 1842   3.083   0.475   3.037
   80EH     C0E 1843   3.101   0.447   3.119
   80EH     H0F 1844   3.126   0.466   3.150
   80EH     C0G 1845   3.040   0.459   3.131
   80EH     H0H 1846   3.034   0.502   3.137
   80EH     H0I 1847   3.028   0.439   3.169
   80EH     C0J 1848   3.003   0.439   3.084
   80EH     H0K 1849   2.977   0.471   3.070
   80EH     H0M 1850   2.977   0.406   3.098
   80EH     H0N 1851   3.026   0.425   3.051
   80EH     C0O 1852   3.113   0.384   3.122
   80EH     H0P 1853   3.081   0.362   3.100
   80EH     H0Q 1854   3.151   0.375   3.101
   80EH     C0R 1855   3.115   0.363   3.181
   80EH     H0S 1856   3.087   0.385   3.205
   80EH     H0T 1857   3.154   0.369   3.197
   80EH     C0U 1858   3.101   0.302   3.184
   80EH     H0V 1859   3.059   0.297   3.194
   80EH     H0W 1860   3.107   0.283   3.145
   80EH     C0X 1861   3.136   0.273   3.227
   80EH     H0Y 1862   3.125   0.230   3.230
   80EH     H0Z 1863   3.131   0.291   3.267
   80EH     H10 1864   3.179   0.275   3.217
   81ST     H00 1865   3.697   1.227   3.315
   81ST     C01 1866   3.675   1.231   3.352
   81ST     H02 1867   3.702   1.224   3.385
   81ST     H03 1868   3.661   1.273   3.355
   81ST     C04 1869   3.629   1.192   3.354
   81ST     C05 1870   3.598   1.181   3.310
   81ST     H06 1871   3.559   1.200   3.306
   81ST     H07 1872   3.616   1.165   3.276
   81ST     C08 1873   3.616   1.166   3.406
   81ST     O09 1874   3.614   1.188   3.450
   81ST     O0A 1875   3.607   1.111   3.400
   81ST     C0B 1876   3.641   1.075   3.430
   81ST     H0C 1877   3.678   1.068   3.407
   81ST     H0D 1878   3.652   1.093   3.466
   81ST     C0E 1879   3.611   1.020   3.440
   81ST     H0F 1880   3.640   0.987   3.442
   81ST     H0G 1881   3.584   1.012   3.406
   81ST     C0H 1882   3.577   1.022   3.494
   81ST     H0I 1883   3.543   0.996   3.491
   81ST     H0J 1884   3.561   1.063   3.500
   81ST     C0K 1885   3.614   1.005   3.546
   81ST     H0M 1886   3.656   1.011   3.537
   81ST     H0N 1887   3.604   1.031   3.580
   81ST     C0O 1888   3.604   0.942   3.563
   81ST     H0P 1889   3.634   0.917   3.545
   81ST     H0Q 1890   3.565   0.929   3.548
   81ST     C0R 1891   3.605   0.935   3.629
   81ST     H0S 1892   3.579   0.901   3.640
   81ST     H0T 1893   3.588   0.970   3.648
   81ST     C0U 1894   3.665   0.924   3.651
   81ST     H0V 1895   3.668   0.939   3.691
   81ST     H0W 1896   3.693   0.947   3.626
   81ST     C0X 1897   3.680   0.862   3.649
   81ST     H0Y 1898   3.648   0.840   3.631
   81ST     H0Z 1899   3.715   0.856   3.624
   81ST     C10 1900   3.692   0.839   3.708
   81ST     H11 1901   3.735   0.836   3.714
   81ST     H12 1902   3.676   0.866   3.738
   81ST     C13 1903   3.665   0.780   3.716
   81ST     H14 1904   3.638   0.781   3.750
   81ST     H15 1905   3.641   0.770   3.682
   81ST     C16 1906   3.710   0.734   3.726
   81ST     H17 1907   3.748   0.748   3.709
   81ST     H18 1908   3.717   0.728   3.769
   81ST     C19 1909   3.693   0.678   3.699
   81ST     H1A 1910   3.663   0.684   3.669
   81ST     H1B 1911   3.728   0.661   3.678
   81ST     C1C 1912   3.672   0.636   3.742
   81ST     H1D 1913   3.683   0.649   3.782
   81ST     H1E 1914   3.629   0.635   3.741
   81ST     C1F 1915   3.695   0.578   3.732
   81ST     H1G 1916   3.666   0.554   3.709
   81ST     H1H 1917   3.731   0.580   3.707
   81ST     C1I 1918   3.709   0.549   3.785
   81ST     H1J 1919   3.679   0.518   3.793
   81ST     H1K 1920   3.706   0.577   3.818
   81ST     C1M 1921   3.765   0.524   3.783
   81ST     H1N 1922   3.783   0.527   3.822
   81ST     H1O 1923   3.790   0.546   3.755
   81ST     C1P 1924   3.763   0.465   3.767
   81ST     H1Q 1925   3.743   0.442   3.798
   81ST     H1R 1926   3.738   0.461   3.731
   81ST     C1S 1927   3.819   0.443   3.756
   81ST     H1T 1928   3.817   0.410   3.727
   81ST     H1U 1929   3.836   0.427   3.793
   81ST     H1V 1930   3.845   0.474   3.741
   82ST     H00 1931   4.211   1.378   3.824
   82ST     C01 1932   4.210   1.373   3.781
   82ST     H02 1933   4.239   1.399   3.763
   82ST     H03 1934   4.221   1.331   3.772
   82ST     C04 1935   4.154   1.385   3.759
   82ST     C05 1936   4.109   1.370   3.785
   82ST     H06 1937   4.087   1.335   3.772
   82ST     H07 1938   4.102   1.384   3.824
   82ST     C08 1939   4.150   1.413   3.707
   82ST     O09 1940   4.177   1.403   3.666
   82ST     O0A 1941   4.113   1.454   3.708
   82ST     C0B 1942   4.132   1.508   3.696
   82ST     H0C 1943   4.148   1.526   3.733
   82ST     H0D 1944   4.163   1.506   3.668
   82ST     C0E 1945   4.084   1.543   3.673
   82ST     H0F 1946   4.090   1.585   3.684
   82ST     H0G 1947   4.046   1.530   3.692
   82ST     C0H 1948   4.079   1.537   3.610
   82ST     H0I 1949   4.038   1.543   3.598
   82ST     H0J 1950   4.090   1.497   3.598
   82ST     C0K 1951   4.117   1.581   3.579
   82ST     H0M 1952   4.150   1.593   3.606
   82ST     H0N 1953   4.136   1.562   3.545
   82ST     C0O 1954   4.084   1.633   3.559
   82ST     H0P 1955   4.087   1.665   3.589
   82ST     H0Q 1956   4.041   1.624   3.557
   82ST     C0R 1957   4.105   1.655   3.501
   82ST     H0S 1958   4.072   1.675   3.479
   82ST     H0T 1959   4.117   1.622   3.476
   82ST     C0U 1960   4.154   1.697   3.507
   82ST     H0V 1961   4.179   1.695   3.472
   82ST     H0W 1962   4.178   1.685   3.541
   82ST     C0X 1963   4.133   1.757   3.515
   82ST     H0Y 1964   4.090   1.757   3.517
   82ST     H0Z 1965   4.147   1.773   3.553
   82ST     C10 1966   4.152   1.796   3.467
   82ST     H11 1967   4.186   1.820   3.480
   82ST     H12 1968   4.165   1.772   3.433
   82ST     C13 1969   4.104   1.836   3.448
   82ST     H14 1970   4.096   1.830   3.406
   82ST     H15 1971   4.067   1.825   3.469
   82ST     C16 1972   4.118   1.898   3.459
   82ST     H17 1973   4.149   1.900   3.490
   82ST     H18 1974   4.136   1.915   3.423
   82ST     C19 1975   4.066   1.932   3.476
   82ST     H1A 1976   4.035   1.905   3.490
   82ST     H1B 1977   4.076   1.958   3.510
   82ST     C1C 1978   4.044   1.968   3.428
   82ST     H1D 1979   4.074   1.970   3.397
   82ST     H1E 1980   4.010   1.948   3.410
   82ST     C1F 1981   4.028   2.026   3.447
   82ST     H1G 1982   3.985   2.027   3.454
   82ST     H1H 1983   4.048   2.035   3.484
   82ST     C1I 1984   4.043   2.069   3.405
   82ST     H1J 1985   4.007   2.083   3.385
   82ST     H1K 1986   4.068   2.051   3.374
   82ST     C1M 1987   4.073   2.116   3.430
   82ST     H1N 1988   4.103   2.131   3.403
   82ST     H1O 1989   4.093   2.103   3.466
   82ST     C1P 1990   4.034   2.162   3.444
   82ST     H1Q 1991   4.019   2.179   3.408
   82ST     H1R 1992   4.000   2.146   3.466
   82ST     C1S 1993   4.062   2.205   3.478
   82ST     H1T 1994   4.034   2.225   3.504
   82ST     H1U 1995   4.081   2.234   3.453
   82ST     H1V 1996   4.093   2.187   3.503
   83LA     H00 1997   4.504   1.688   4.090
   83LA     C01 1998   4.537   1.667   4.073
   83LA     H02 1999   4.557   1.692   4.044
   83LA     H03 2000   4.565   1.658   4.105
   83LA     C04 2001   4.519   1.616   4.047
   83LA     C05 2002   4.506   1.613   3.996
   83LA     H06 2003   4.533   1.628   3.965
   83LA     H07 2004   4.465   1.608   3.984
   83LA     C08 2005   4.516   1.567   4.080
   83LA     O09 2006   4.476   1.539   4.085
   83LA     O0A 2007   4.562   1.557   4.105
   83LA     C0B 2008   4.596   1.519   4.081
   83LA     H0C 2009   4.638   1.531   4.087
   83LA     H0D 2010   4.589   1.518   4.039
   83LA     C0E 2011   4.586   1.463   4.107
   83LA     H0F 2012   4.544   1.460   4.120
   83LA     H0G 2013   4.592   1.432   4.077
   83LA     C0H 2014   4.624   1.452   4.157
   83LA     H0I 2015   4.657   1.481   4.156
   83LA     H0J 2016   4.602   1.459   4.194
   83LA     C0K 2017   4.648   1.392   4.156
   83LA     H0M 2018   4.615   1.363   4.153
   83LA     H0N 2019   4.673   1.386   4.120
   83LA     C0O 2020   4.684   1.379   4.210
   83LA     H0P 2021   4.706   1.415   4.222
   83LA     H0Q 2022   4.657   1.369   4.243
   83LA     C0R 2023   4.725   1.330   4.200
   83LA     H0S 2024   4.703   1.293   4.195
   83LA     H0T 2025   4.747   1.336   4.163
   83LA     C0U 2026   4.766   1.324   4.249
   83LA     H0V 2027   4.767   1.360   4.273
   83LA     H0W 2028   4.753   1.292   4.275
   83LA     C0X 2029   4.826   1.312   4.228
   83LA     H0Y 2030   4.825   1.304   4.185
   83LA     H0Z 2031   4.851   1.347   4.233
   83LA     C10 2032   4.851   1.262   4.257
   83LA     H11 2033   4.829   1.226   4.247
   83LA     H12 2034   4.847   1.267   4.301
   83LA     C13 2035   4.912   1.255   4.243
   83LA     H14 2036   4.936   1.257   4.279
   83LA     H15 2037   4.925   1.288   4.217
   83LA     C16 2038   4.923   1.201   4.215
   83LA     H17 2039   4.947   1.208   4.179
   83LA     H18 2040   4.885   1.184   4.201
   83LA     C19 2041   4.951   1.161   4.252
   83LA     H1A 2042   4.993   1.171   4.257
   83LA     H1B 2043   4.948   1.121   4.236
   83LA     H1C 2044   4.932   1.161   4.291
   84ST     H00 2045   4.321   2.671   4.156
   84ST     C01 2046   4.293   2.640   4.144
   84ST     H02 2047   4.304   2.604   4.164
   84ST     H03 2048   4.253   2.652   4.157
   84ST     C04 2049   4.295   2.633   4.083
   84ST     C05 2050   4.300   2.675   4.049
   84ST     H06 2051   4.265   2.691   4.029
   84ST     H07 2052   4.333   2.701   4.052
   84ST     C08 2053   4.291   2.578   4.061
   84ST     O09 2054   4.258   2.544   4.076
   84ST     O0A 2055   4.328   2.568   4.021
   84ST     C0B 2056   4.365   2.525   4.030
   84ST     H0C 2057   4.400   2.539   4.054
   84ST     H0D 2058   4.346   2.494   4.052
   84ST     C0E 2059   4.385   2.502   3.974
   84ST     H0F 2060   4.426   2.487   3.978
   84ST     H0G 2061   4.387   2.535   3.945
   84ST     C0H 2062   4.347   2.457   3.952
   84ST     H0I 2063   4.348   2.456   3.908
   84ST     H0J 2064   4.305   2.465   3.963
   84ST     C0K 2065   4.364   2.397   3.974
   84ST     H0M 2066   4.387   2.402   4.011
   84ST     H0N 2067   4.328   2.375   3.985
   84ST     C0O 2068   4.399   2.364   3.931
   84ST     H0P 2069   4.442   2.369   3.939
   84ST     H0Q 2070   4.392   2.380   3.891
   84ST     C0R 2071   4.385   2.299   3.932
   84ST     H0S 2072   4.391   2.282   3.892
   84ST     H0T 2073   4.342   2.294   3.941
   84ST     C0U 2074   4.420   2.267   3.976
   84ST     H0V 2075   4.398   2.233   3.990
   84ST     H0W 2076   4.427   2.293   4.010
   84ST     C0X 2077   4.476   2.248   3.951
   84ST     H0Y 2078   4.480   2.263   3.910
   84ST     H0Z 2079   4.508   2.265   3.974
   84ST     C10 2080   4.481   2.183   3.951
   84ST     H11 2081   4.506   2.171   3.984
   84ST     H12 2082   4.442   2.165   3.957
   84ST     C13 2083   4.507   2.161   3.895
   84ST     H14 2084   4.480   2.134   3.877
   84ST     H15 2085   4.512   2.194   3.868
   84ST     C16 2086   4.564   2.133   3.905
   84ST     H17 2087   4.582   2.147   3.943
   84ST     H18 2088   4.558   2.090   3.910
   84ST     C19 2089   4.606   2.144   3.857
   84ST     H1A 2090   4.593   2.178   3.834
   84ST     H1B 2091   4.645   2.153   3.873
   84ST     C1C 2092   4.611   2.093   3.818
   84ST     H1D 2093   4.594   2.058   3.837
   84ST     H1E 2094   4.587   2.100   3.782
   84ST     C1F 2095   4.671   2.082   3.801
   84ST     H1G 2096   4.679   2.100   3.763
   84ST     H1H 2097   4.697   2.101   3.830
   84ST     C1I 2098   4.683   2.021   3.799
   84ST     H1J 2099   4.687   2.008   3.758
   84ST     H1K 2100   4.650   1.999   3.816
   84ST     C1M 2101   4.734   2.007   3.829
   84ST     H1N 2102   4.730   1.969   3.849
   84ST     H1O 2103   4.741   2.037   3.861
   84ST     C1P 2104   4.783   2.005   3.792
   84ST     H1Q 2105   4.779   1.972   3.765
   84ST     H1R 2106   4.784   2.041   3.767
   84ST     C1S 2107   4.835   2.001   3.823
   84ST     H1T 2108   4.868   2.019   3.801
   84ST     H1U 2109   4.845   1.959   3.830
   84ST     H1V 2110   4.832   2.021   3.861
   85ST     H00 2111   4.369   2.954   3.578
   85ST     C01 2112   4.399   2.952   3.609
   85ST     H02 2113   4.378   2.946   3.647
   85ST     H03 2114   4.426   2.919   3.602
   85ST     C04 2115   4.430   3.005   3.611
   85ST     C05 2116   4.446   3.031   3.566
   85ST     H06 2117   4.487   3.027   3.552
   85ST     H07 2118   4.417   3.044   3.539
   85ST     C08 2119   4.445   3.027   3.665
   85ST     O09 2120   4.463   3.001   3.703
   85ST     O0A 2121   4.435   3.082   3.667
   85ST     C0B 2122   4.398   3.100   3.709
   85ST     H0C 2123   4.356   3.097   3.694
   85ST     H0D 2124   4.401   3.075   3.743
   85ST     C0E 2125   4.412   3.160   3.724
   85ST     H0F 2126   4.375   3.181   3.737
   85ST     H0G 2127   4.427   3.182   3.689
   85ST     C0H 2128   4.455   3.163   3.771
   85ST     H0I 2129   4.478   3.200   3.768
   85ST     H0J 2130   4.483   3.130   3.767
   85ST     C0K 2131   4.427   3.160   3.830
   85ST     H0M 2132   4.387   3.141   3.827
   85ST     H0N 2133   4.450   3.135   3.856
   85ST     C0O 2134   4.420   3.220   3.857
   85ST     H0P 2135   4.380   3.235   3.849
   85ST     H0Q 2136   4.448   3.247   3.839
   85ST     C0R 2137   4.430   3.218   3.922
   85ST     H0S 2138   4.446   3.257   3.936
   85ST     H0T 2139   4.461   3.189   3.932
   85ST     C0U 2140   4.376   3.205   3.955
   85ST     H0V 2141   4.386   3.185   3.992
   85ST     H0W 2142   4.352   3.177   3.932
   85ST     C0X 2143   4.342   3.258   3.968
   85ST     H0Y 2144   4.361   3.292   3.949
   85ST     H0Z 2145   4.303   3.255   3.950
   85ST     C10 2146   4.336   3.268   4.031
   85ST     H11 2147   4.297   3.255   4.044
   85ST     H12 2148   4.366   3.244   4.053
   85ST     C13 2149   4.345   3.331   4.046
   85ST     H14 2150   4.377   3.335   4.074
   85ST     H15 2151   4.356   3.353   4.011
   85ST     C16 2152   4.291   3.357   4.071
   85ST     H17 2153   4.256   3.333   4.058
   85ST     H18 2154   4.292   3.355   4.114
   85ST     C19 2155   4.283   3.419   4.052
   85ST     H1A 2156   4.307   3.427   4.017
   85ST     H1B 2157   4.241   3.426   4.041
   85ST     C1C 2158   4.299   3.460   4.099
   85ST     H1D 2159   4.301   3.438   4.137
   85ST     H1E 2160   4.338   3.476   4.091
   85ST     C1F 2161   4.257   3.507   4.104
   85ST     H1G 2162   4.272   3.542   4.082
   85ST     H1H 2163   4.219   3.495   4.085
   85ST     C1I 2164   4.247   3.523   4.163
   85ST     H1J 2165   4.266   3.561   4.171
   85ST     H1K 2166   4.265   3.493   4.189
   85ST     C1M 2167   4.187   3.527   4.175
   85ST     H1N 2168   4.179   3.513   4.215
   85ST     H1O 2169   4.165   3.501   4.147
   85ST     C1P 2170   4.167   3.585   4.169
   85ST     H1Q 2171   4.184   3.609   4.200
   85ST     H1R 2172   4.180   3.602   4.131
   85ST     C1S 2173   4.106   3.588   4.172
   85ST     H1T 2174   4.091   3.622   4.150
   85ST     H1U 2175   4.092   3.592   4.213
   85ST     H1V 2176   4.088   3.552   4.156
   86EH     H00 2177   4.409   3.620   3.318
   86EH     C01 2178   4.393   3.598   3.283
   86EH     H02 2179   4.353   3.583   3.292
   86EH     H03 2180   4.390   3.625   3.249
   86EH     C04 2181   4.431   3.551   3.268
   86EH     C05 2182   4.453   3.519   3.305
   86EH     H06 2183   4.429   3.489   3.325
   86EH     H07 2184   4.490   3.531   3.325
   86EH     C08 2185   4.441   3.541   3.210
   86EH     O09 2186   4.409   3.546   3.174
   86EH     O0A 2187   4.495   3.527   3.202
   86EH     C0B 2188   4.514   3.527   3.147
   86EH     H0C 2189   4.520   3.567   3.134
   86EH     H0D 2190   4.483   3.510   3.121
   86EH     C0E 2191   4.568   3.493   3.142
   86EH     H0F 2192   4.586   3.491   3.182
   86EH     C0G 2193   4.556   3.434   3.123
   86EH     H0H 2194   4.534   3.412   3.155
   86EH     H0I 2195   4.593   3.412   3.117
   86EH     C0J 2196   4.522   3.433   3.070
   86EH     H0K 2197   4.486   3.408   3.074
   86EH     H0M 2198   4.546   3.416   3.037
   86EH     H0N 2199   4.510   3.473   3.059
   86EH     C0O 2200   4.609   3.522   3.102
   86EH     H0P 2201   4.597   3.514   3.061
   86EH     H0Q 2202   4.608   3.565   3.108
   86EH     C0R 2203   4.668   3.501   3.111
   86EH     H0S 2204   4.667   3.459   3.123
   86EH     H0T 2205   4.686   3.523   3.144
   86EH     C0U 2206   4.703   3.508   3.060
   86EH     H0V 2207   4.703   3.471   3.038
   86EH     H0W 2208   4.684   3.538   3.034
   86EH     C0X 2209   4.761   3.525   3.074
   86EH     H0Y 2210   4.786   3.529   3.038
   86EH     H0Z 2211   4.780   3.496   3.101
   86EH     H10 2212   4.762   3.564   3.094
   87EH     H00 2213   4.278   3.944   3.356
   87EH     C01 2214   4.321   3.952   3.353
   87EH     H02 2215   4.341   3.930   3.386
   87EH     H03 2216   4.336   3.935   3.315
   87EH     C04 2217   4.333   4.012   3.356
   87EH     C05 2218   4.308   4.045   3.391
   87EH     H06 2219   4.318   4.044   3.432
   87EH     H07 2220   4.270   4.062   3.380
   87EH     C08 2221   4.375   4.034   3.320
   87EH     O09 2222   4.416   4.011   3.307
   87EH     O0A 2223   4.360   4.084   3.300
   87EH     C0B 2224   4.392   4.105   3.256
   87EH     H0C 2225   4.381   4.085   3.219
   87EH     H0D 2226   4.434   4.097   3.263
   87EH     C0E 2227   4.382   4.168   3.251
   87EH     H0F 2228   4.344   4.178   3.270
   87EH     C0G 2229   4.428   4.201   3.280
   87EH     H0H 2230   4.425   4.194   3.324
   87EH     H0I 2231   4.423   4.243   3.273
   87EH     C0J 2232   4.485   4.183   3.260
   87EH     H0K 2233   4.511   4.172   3.294
   87EH     H0M 2234   4.505   4.216   3.239
   87EH     H0N 2235   4.483   4.149   3.234
   87EH     C0O 2236   4.379   4.186   3.189
   87EH     H0P 2237   4.419   4.187   3.172
   87EH     H0Q 2238   4.357   4.155   3.166
   87EH     C0R 2239   4.351   4.241   3.182
   87EH     H0S 2240   4.361   4.267   3.216
   87EH     H0T 2241   4.308   4.236   3.182
   87EH     C0U 2242   4.369   4.269   3.129
   87EH     H0V 2243   4.401   4.297   3.138
   87EH     H0W 2244   4.384   4.240   3.101
   87EH     C0X 2245   4.321   4.300   3.102
   87EH     H0Y 2246   4.334   4.321   3.066
   87EH     H0Z 2247   4.304   4.330   3.129
   87EH     H10 2248   4.289   4.273   3.091
   88EH     H00 2249   4.095   3.909   3.750
   88EH     C01 2250   4.126   3.935   3.766
   88EH     H02 2251   4.158   3.910   3.782
   88EH     H03 2252   4.142   3.960   3.734
   88EH     C04 2253   4.104   3.971   3.811
   88EH     C05 2254   4.070   3.953   3.848
   88EH     H06 2255   4.084   3.928   3.880
   88EH     H07 2256   4.027   3.952   3.840
   88EH     C08 2257   4.121   4.028   3.813
   88EH     O09 2258   4.166   4.044   3.801
   88EH     O0A 2259   4.079   4.062   3.826
   88EH     C0B 2260   4.088   4.120   3.818
   88EH     H0C 2261   4.085   4.129   3.776
   88EH     H0D 2262   4.128   4.130   3.831
   88EH     C0E 2263   4.045   4.153   3.852
   88EH     H0F 2264   4.011   4.127   3.860
   88EH     C0G 2265   4.070   4.171   3.907
   88EH     H0H 2266   4.076   4.136   3.933
   88EH     H0I 2267   4.041   4.197   3.928
   88EH     C0J 2268   4.124   4.202   3.900
   88EH     H0K 2269   4.156   4.185   3.924
   88EH     H0M 2270   4.120   4.245   3.912
   88EH     H0N 2271   4.137   4.201   3.858
   88EH     C0O 2272   4.025   4.204   3.818
   88EH     H0P 2273   4.055   4.235   3.819
   88EH     H0Q 2274   4.020   4.193   3.776
   88EH     C0R 2275   3.970   4.226   3.840
   88EH     H0S 2276   3.969   4.220   3.884
   88EH     H0T 2277   3.937   4.203   3.824
   88EH     C0U 2278   3.963   4.286   3.827
   88EH     H0V 2279   3.976   4.310   3.861
   88EH     H0W 2280   3.988   4.297   3.793
   88EH     C0X 2281   3.903   4.299   3.813
   88EH     H0Y 2282   3.898   4.342   3.805
   88EH     H0Z 2283   3.876   4.288   3.846
   88EH     H10 2284   3.890   4.277   3.777
   89LA     H00 2285   3.929   3.799   4.036
   89LA     C01 2286   3.904   3.780   4.065
   89LA     H02 2287   3.863   3.793   4.058
   89LA     H03 2288   3.905   3.737   4.060
   89LA     C04 2289   3.921   3.795   4.121
   89LA     C05 2290   3.901   3.837   4.147
   89LA     H06 2291   3.858   3.843   4.150
   89LA     H07 2292   3.925   3.871   4.154
   89LA     C08 2293   3.960   3.760   4.148
   89LA     O09 2294   4.002   3.776   4.168
   89LA     O0A 2295   3.945   3.709   4.148
   89LA     C0B 2296   3.920   3.689   4.195
   89LA     H0C 2297   3.890   3.661   4.185
   89LA     H0D 2298   3.901   3.722   4.216
   89LA     C0E 2299   3.964   3.663   4.232
   89LA     H0F 2300   4.003   3.682   4.226
   89LA     H0G 2301   3.953   3.669   4.274
   89LA     C0H 2302   3.969   3.600   4.220
   89LA     H0I 2303   3.935   3.587   4.198
   89LA     H0J 2304   4.004   3.593   4.195
   89LA     C0K 2305   3.974   3.566   4.276
   89LA     H0M 2306   4.007   3.583   4.300
   89LA     H0N 2307   3.937   3.571   4.299
   89LA     C0O 2308   3.985   3.503   4.264
   89LA     H0P 2309   3.963   3.490   4.228
   89LA     H0Q 2310   4.027   3.496   4.255
   89LA     C0R 2311   3.967   3.466   4.314
   89LA     H0S 2312   3.994   3.473   4.348
   89LA     H0T 2313   3.927   3.477   4.328
   89LA     C0U 2314   3.968   3.403   4.300
   89LA     H0V 2315   3.969   3.398   4.256
   89LA     H0W 2316   4.005   3.385   4.315
   89LA     C0X 2317   3.918   3.373   4.324
   89LA     H0Y 2318   3.896   3.399   4.351
   89LA     H0Z 2319   3.890   3.362   4.292
   89LA     C10 2320   3.935   3.320   4.356
   89LA     H11 2321   3.958   3.331   4.391
   89LA     H12 2322   3.962   3.296   4.330
   89LA     C13 2323   3.885   3.286   4.373
   89LA     H14 2324   3.888   3.246   4.355
   89LA     H15 2325   3.849   3.304   4.357
   89LA     C16 2326   3.881   3.281   4.434
   89LA     H17 2327   3.840   3.289   4.447
   89LA     H18 2328   3.906   3.311   4.453
   89LA     C19 2329   3.897   3.225   4.453
   89LA     H1A 2330   3.866   3.196   4.445
   89LA     H1B 2331   3.905   3.225   4.496
   89LA     H1C 2332   3.934   3.212   4.433
   90EH     H00 2333   3.966   4.301   4.198
   90EH     C01 2334   3.953   4.276   4.163
   90EH     H02 2335   3.984   4.279   4.132
   90EH     H03 2336   3.951   4.235   4.176
   90EH     C04 2337   3.899   4.295   4.143
   90EH     C05 2338   3.886   4.347   4.137
   90EH     H06 2339   3.903   4.370   4.105
   90EH     H07 2340   3.871   4.369   4.171
   90EH     C08 2341   3.859   4.253   4.126
   90EH     O09 2342   3.870   4.211   4.105
   90EH     O0A 2343   3.807   4.268   4.142
   90EH     C0B 2344   3.766   4.226   4.139
   90EH     H0C 2345   3.771   4.199   4.173
   90EH     H0D 2346   3.772   4.203   4.103
   90EH     C0E 2347   3.708   4.253   4.140
   90EH     H0F 2348   3.712   4.293   4.158
   90EH     C0G 2349   3.686   4.259   4.081
   90EH     H0H 2350   3.709   4.289   4.059
   90EH     H0I 2351   3.645   4.274   4.082
   90EH     C0J 2352   3.687   4.204   4.050
   90EH     H0K 2353   3.708   4.208   4.011
   90EH     H0M 2354   3.646   4.190   4.041
   90EH     H0N 2355   3.707   4.174   4.073
   90EH     C0O 2356   3.668   4.218   4.176
   90EH     H0P 2357   3.655   4.183   4.154
   90EH     H0Q 2358   3.689   4.203   4.212
   90EH     C0R 2359   3.618   4.251   4.193
   90EH     H0S 2360   3.607   4.280   4.162
   90EH     H0T 2361   3.627   4.275   4.228
   90EH     C0U 2362   3.569   4.215   4.206
   90EH     H0V 2363   3.543   4.213   4.170
   90EH     H0W 2364   3.583   4.174   4.214
   90EH     C0X 2365   3.536   4.236   4.254
   90EH     H0Y 2366   3.500   4.211   4.262
   90EH     H0Z 2367   3.522   4.277   4.247
   90EH     H10 2368   3.560   4.237   4.291
   91EH     H00 2369   4.025   4.648   4.229
   91EH     C01 2370   3.992   4.671   4.245
   91EH     H02 2371   3.962   4.643   4.262
   91EH     H03 2372   4.006   4.696   4.278
   91EH     C04 2373   3.966   4.705   4.201
   91EH     C05 2374   3.958   4.687   4.152
   91EH     H06 2375   3.925   4.659   4.144
   91EH     H07 2376   3.989   4.688   4.122
   91EH     C08 2377   3.949   4.761   4.215
   91EH     O09 2378   3.931   4.775   4.258
   91EH     O0A 2379   3.961   4.796   4.174
   91EH     C0B 2380   3.957   4.853   4.186
   91EH     H0C 2381   3.992   4.865   4.209
   91EH     H0D 2382   3.922   4.860   4.211
   91EH     C0E 2383   3.953   4.887   4.132
   91EH     H0F 2384   3.969   4.863   4.099
   91EH     C0G 2385   3.892   4.900   4.119
   91EH     H0H 2386   3.870   4.864   4.109
   91EH     H0I 2387   3.890   4.926   4.084
   91EH     C0J 2388   3.864   4.929   4.168
   91EH     H0K 2389   3.827   4.908   4.179
   91EH     H0M 2390   3.853   4.970   4.158
   91EH     H0N 2391   3.889   4.929   4.202
   91EH     C0O 2392   3.988   4.941   4.136
   91EH     H0P 2393   3.966   4.970   4.160
   91EH     H0Q 2394   4.025   4.933   4.157
   91EH     C0R 2395   4.000   4.965   4.079
   91EH     H0S 2396   3.966   4.957   4.052
   91EH     H0T 2397   4.034   4.945   4.062
   91EH     C0U 2398   4.010   5.026   4.082
   91EH     H0V 2399   3.974   5.047   4.072
   91EH     H0W 2400   4.022   5.037   4.123
   91EH     C0X 2401   4.056   5.043   4.042
   91EH     H0Y 2402   4.062   5.087   4.043
   91EH     H0Z 2403   4.046   5.032   4.001
   91EH     H10 2404   4.094   5.024   4.052
   92ST     H00 2405   3.860   0.860   4.174
   92ST     C01 2406   3.831   0.869   4.205
   92ST     H02 2407   3.852   0.873   4.243
   92ST     H03 2408   3.812   0.908   4.196
   92ST     C04 2409   3.789   0.825   4.209
   92ST     C05 2410   3.769   0.801   4.165
   92ST     H06 2411   3.729   0.813   4.149
   92ST     H07 2412   3.794   0.781   4.138
   92ST     C08 2413   3.769   0.808   4.263
   92ST     O09 2414   3.757   0.839   4.299
   92ST     O0A 2415   3.767   0.753   4.268
   92ST     C0B 2416   3.799   0.729   4.310
   92ST     H0C 2417   3.840   0.722   4.296
   92ST     H0D 2418   3.800   0.756   4.343
   92ST     C0E 2419   3.772   0.674   4.328
   92ST     H0F 2420   3.804   0.646   4.342
   92ST     H0G 2421   3.753   0.655   4.293
   92ST     C0H 2422   3.729   0.682   4.374
   92ST     H0I 2423   3.699   0.651   4.371
   92ST     H0J 2424   3.708   0.721   4.368
   92ST     C0K 2425   3.756   0.682   4.434
   92ST     H0M 2426   3.799   0.692   4.430
   92ST     H0N 2427   3.738   0.712   4.458
   92ST     C0O 2428   3.750   0.623   4.463
   92ST     H0P 2429   3.786   0.599   4.456
   92ST     H0Q 2430   3.717   0.602   4.445
   92ST     C0R 2431   3.739   0.630   4.528
   92ST     H0S 2432   3.715   0.595   4.542
   92ST     H0T 2433   3.716   0.665   4.535
   92ST     C0U 2434   3.794   0.633   4.561
   92ST     H0V 2435   3.789   0.656   4.597
   92ST     H0W 2436   3.824   0.653   4.537
   92ST     C0X 2437   3.816   0.574   4.576
   92ST     H0Y 2438   3.790   0.544   4.559
   92ST     H0Z 2439   3.855   0.568   4.559
   92ST     C10 2440   3.819   0.565   4.640
   92ST     H11 2441   3.860   0.570   4.654
   92ST     H12 2442   3.795   0.596   4.660
   92ST     C13 2443   3.797   0.506   4.657
   92ST     H14 2444   3.764   0.510   4.685
   92ST     H15 2445   3.781   0.486   4.622
   92ST     C16 2446   3.844   0.470   4.684
   92ST     H17 2447   3.883   0.485   4.671
   92ST     H18 2448   3.842   0.475   4.728
   92ST     C19 2449   3.838   0.408   4.668
   92ST     H1A 2450   3.813   0.404   4.633
   92ST     H1B 2451   3.878   0.392   4.658
   92ST     C1C 2452   3.813   0.373   4.716
   92ST     H1D 2453   3.815   0.396   4.753
   92ST     H1E 2454   3.772   0.366   4.708
   92ST     C1F 2455   3.844   0.318   4.723
   92ST     H1G 2456   3.822   0.287   4.703
   92ST     H1H 2457   3.883   0.321   4.705
   92ST     C1I 2458   3.850   0.303   4.783
   92ST     H1J 2459   3.823   0.271   4.793
   92ST     H1K 2460   3.838   0.337   4.808
   92ST     C1M 2461   3.907   0.286   4.797
   92ST     H1N 2462   3.918   0.300   4.836
   92ST     H1O 2463   3.935   0.306   4.769
   92ST     C1P 2464   3.914   0.226   4.794
   92ST     H1Q 2465   3.892   0.207   4.826
   92ST     H1R 2466   3.898   0.211   4.756
   92ST     C1S 2467   3.973   0.210   4.798
   92ST     H1T 2468   3.981   0.172   4.777
   92ST     H1U 2469   3.985   0.205   4.839
   92ST     H1V 2470   3.999   0.240   4.780
   93EH     H00 2471   3.153   0.732   0.262
   93EH     C01 2472   3.167   0.691   0.256
   93EH     H02 2473   3.190   0.678   0.291
   93EH     H03 2474   3.132   0.665   0.252
   93EH     C04 2475   3.202   0.687   0.205
   93EH     C05 2476   3.239   0.724   0.193
   93EH     H06 2477   3.276   0.725   0.215
   93EH     H07 2478   3.228   0.761   0.172
   93EH     C08 2479   3.194   0.641   0.169
   93EH     O09 2480   3.184   0.595   0.183
   93EH     O0A 2481   3.197   0.656   0.115
   93EH     C0B 2482   3.179   0.617   0.076
   93EH     H0C 2483   3.136   0.615   0.075
   93EH     H0D 2484   3.194   0.577   0.087
   93EH     C0E 2485   3.202   0.632   0.018
   93EH     H0F 2486   3.212   0.675   0.018
   93EH     C0G 2487   3.256   0.600   0.005
   93EH     H0H 2488   3.288   0.613   0.032
   93EH     H0I 2489   3.269   0.608  -0.035
   93EH     C0J 2490   3.247   0.537   0.012
   93EH     H0K 2491   3.277   0.520   0.040
   93EH     H0M 2492   3.250   0.517  -0.027
   93EH     H0N 2493   3.208   0.529   0.029
   93EH     C0O 2494   3.158   0.622  -0.028
   93EH     H0P 2495   3.156   0.579  -0.036
   93EH     H0Q 2496   3.119   0.634  -0.013
   93EH     C0R 2497   3.171   0.653  -0.080
   93EH     H0S 2498   3.215   0.656  -0.085
   93EH     H0T 2499   3.157   0.694  -0.077
   93EH     C0U 2500   3.146   0.626  -0.130
   93EH     H0V 2501   3.176   0.601  -0.149
   93EH     H0W 2502   3.113   0.600  -0.117
   93EH     C0X 2503   3.125   0.669  -0.171
   93EH     H0Y 2504   3.108   0.649  -0.207
   93EH     H0Z 2505   3.157   0.696  -0.184
   93EH     H10 2506   3.093   0.693  -0.153
   94ST     H00 2507   2.898   0.932   0.102
   94ST     C01 2508   2.861   0.951   0.088
   94ST     H02 2509   2.871   0.977   0.055
   94ST     H03 2510   2.834   0.920   0.075
   94ST     C04 2511   2.836   0.983   0.133
   94ST     C05 2512   2.835   0.966   0.185
   94ST     H06 2513   2.799   0.948   0.201
   94ST     H07 2514   2.871   0.958   0.205
   94ST     C08 2515   2.810   1.036   0.120
   94ST     O09 2516   2.781   1.044   0.081
   94ST     O0A 2517   2.825   1.076   0.156
   94ST     C0B 2518   2.851   1.123   0.135
   94ST     H0C 2519   2.895   1.115   0.132
   94ST     H0D 2520   2.837   1.130   0.095
   94ST     C0E 2521   2.840   1.173   0.172
   94ST     H0F 2522   2.874   1.200   0.171
   94ST     H0G 2523   2.837   1.159   0.214
   94ST     C0H 2524   2.787   1.203   0.155
   94ST     H0I 2525   2.769   1.222   0.190
   94ST     H0J 2526   2.757   1.174   0.141
   94ST     C0K 2527   2.798   1.248   0.109
   94ST     H0M 2528   2.835   1.238   0.088
   94ST     H0N 2529   2.766   1.248   0.080
   94ST     C0O 2530   2.804   1.309   0.134
   94ST     H0P 2531   2.846   1.318   0.141
   94ST     H0Q 2532   2.784   1.310   0.173
   94ST     C0R 2533   2.777   1.354   0.095
   94ST     H0S 2534   2.762   1.388   0.119
   94ST     H0T 2535   2.742   1.337   0.075
   94ST     C0U 2536   2.819   1.376   0.051
   94ST     H0V 2537   2.798   1.388   0.015
   94ST     H0W 2538   2.846   1.343   0.039
   94ST     C0X 2539   2.854   1.425   0.074
   94ST     H0Y 2540   2.844   1.432   0.115
   94ST     H0Z 2541   2.896   1.415   0.073
   94ST     C10 2542   2.844   1.479   0.040
   94ST     H11 2543   2.877   1.485   0.012
   94ST     H12 2544   2.808   1.475   0.016
   94ST     C13 2545   2.839   1.531   0.079
   94ST     H14 2546   2.801   1.550   0.072
   94ST     H15 2547   2.839   1.518   0.120
   94ST     C16 2548   2.887   1.573   0.069
   94ST     H17 2549   2.921   1.553   0.052
   94ST     H18 2550   2.874   1.604   0.041
   94ST     C19 2551   2.905   1.602   0.125
   94ST     H1A 2552   2.892   1.579   0.159
   94ST     H1B 2553   2.949   1.603   0.127
   94ST     C1C 2554   2.882   1.662   0.129
   94ST     H1D 2555   2.868   1.675   0.090
   94ST     H1E 2556   2.848   1.662   0.156
   94ST     C1F 2557   2.925   1.702   0.151
   94ST     H1G 2558   2.920   1.707   0.194
   94ST     H1H 2559   2.965   1.685   0.145
   94ST     C1I 2560   2.922   1.757   0.123
   94ST     H1J 2561   2.905   1.786   0.150
   94ST     H1K 2562   2.895   1.755   0.089
   94ST     C1M 2563   2.977   1.776   0.104
   94ST     H1N 2564   2.973   1.797   0.066
   94ST     H1O 2565   3.003   1.742   0.097
   94ST     C1P 2566   3.003   1.813   0.145
   94ST     H1Q 2567   2.981   1.850   0.148
   94ST     H1R 2568   3.001   1.795   0.185
   94ST     C1S 2569   3.061   1.825   0.130
   94ST     H1T 2570   3.085   1.834   0.166
   94ST     H1U 2571   3.064   1.860   0.104
   94ST     H1V 2572   3.079   1.791   0.110
   95EH     H00 2573   2.495   0.816   0.414
   95EH     C01 2574   2.459   0.836   0.399
   95EH     H02 2575   2.438   0.855   0.432
   95EH     H03 2576   2.471   0.866   0.370
   95EH     C04 2577   2.422   0.795   0.371
   95EH     C05 2578   2.412   0.746   0.392
   95EH     H06 2579   2.386   0.742   0.426
   95EH     H07 2580   2.439   0.713   0.384
   95EH     C08 2581   2.394   0.811   0.321
   95EH     O09 2582   2.378   0.856   0.311
   95EH     O0A 2583   2.393   0.769   0.284
   95EH     C0B 2584   2.378   0.783   0.229
   95EH     H0C 2585   2.411   0.801   0.209
   95EH     H0D 2586   2.345   0.811   0.230
   95EH     C0E 2587   2.360   0.729   0.198
   95EH     H0F 2588   2.378   0.695   0.219
   95EH     C0G 2589   2.297   0.723   0.199
   95EH     H0H 2590   2.283   0.715   0.240
   95EH     H0I 2591   2.285   0.689   0.175
   95EH     C0J 2592   2.268   0.775   0.177
   95EH     H0K 2593   2.238   0.790   0.206
   95EH     H0M 2594   2.248   0.767   0.139
   95EH     H0N 2595   2.297   0.807   0.170
   95EH     C0O 2596   2.382   0.730   0.138
   95EH     H0P 2597   2.357   0.757   0.113
   95EH     H0Q 2598   2.423   0.747   0.137
   95EH     C0R 2599   2.383   0.673   0.113
   95EH     H0S 2600   2.349   0.650   0.128
   95EH     H0T 2601   2.419   0.652   0.125
   95EH     C0U 2602   2.379   0.675   0.051
   95EH     H0V 2603   2.338   0.670   0.038
   95EH     H0W 2604   2.392   0.714   0.037
   95EH     C0X 2605   2.415   0.630   0.024
   95EH     H0Y 2606   2.411   0.631  -0.020
   95EH     H0Z 2607   2.403   0.590   0.038
   95EH     H10 2608   2.457   0.636   0.034
   96ST     H00 2609   2.402   0.598   4.031
   96ST     C01 2610   2.418   0.557   4.037
   96ST     H02 2611   2.391   0.537   4.064
   96ST     H03 2612   2.417   0.536   3.999
   96ST     C04 2613   2.474   0.559   4.060
   96ST     C05 2614   2.511   0.596   4.043
   96ST     H06 2615   2.542   0.584   4.015
   96ST     H07 2616   2.503   0.637   4.047
   96ST     C08 2617   2.490   0.519   4.101
   96ST     O09 2618   2.479   0.471   4.099
   96ST     O0A 2619   2.517   0.543   4.144
   96ST     C0B 2620   2.494   0.537   4.197
   96ST     H0C 2621   2.463   0.568   4.203
   96ST     H0D 2622   2.474   0.499   4.199
   96ST     C0E 2623   2.539   0.540   4.241
   96ST     H0F 2624   2.523   0.557   4.278
   96ST     H0G 2625   2.571   0.567   4.227
   96ST     C0H 2626   2.565   0.483   4.253
   96ST     H0I 2627   2.606   0.487   4.266
   96ST     H0J 2628   2.566   0.459   4.216
   96ST     C0K 2629   2.531   0.450   4.299
   96ST     H0M 2630   2.490   0.466   4.301
   96ST     H0N 2631   2.528   0.409   4.288
   96ST     C0O 2632   2.559   0.456   4.358
   96ST     H0P 2633   2.541   0.488   4.380
   96ST     H0Q 2634   2.601   0.466   4.353
   96ST     C0R 2635   2.554   0.399   4.392
   96ST     H0S 2636   2.588   0.396   4.420
   96ST     H0T 2637   2.556   0.365   4.365
   96ST     C0U 2638   2.499   0.397   4.426
   96ST     H0V 2639   2.486   0.356   4.431
   96ST     H0W 2640   2.467   0.417   4.404
   96ST     C0X 2641   2.505   0.425   4.484
   96ST     H0Y 2642   2.545   0.442   4.487
   96ST     H0Z 2643   2.477   0.457   4.488
   96ST     C10 2644   2.496   0.383   4.532
   96ST     H11 2645   2.456   0.388   4.548
   96ST     H12 2646   2.498   0.342   4.516
   96ST     C13 2647   2.539   0.390   4.580
   96ST     H14 2648   2.561   0.353   4.586
   96ST     H15 2649   2.569   0.420   4.568
   96ST     C16 2650   2.511   0.409   4.635
   96ST     H17 2651   2.473   0.428   4.626
   96ST     H18 2652   2.503   0.374   4.660
   96ST     C19 2653   2.549   0.450   4.668
   96ST     H1A 2654   2.578   0.468   4.642
   96ST     H1B 2655   2.524   0.483   4.684
   96ST     C1C 2656   2.578   0.421   4.717
   96ST     H1D 2657   2.559   0.383   4.725
   96ST     H1E 2658   2.619   0.413   4.707
   96ST     C1F 2659   2.577   0.457   4.770
   96ST     H1G 2660   2.614   0.479   4.773
   96ST     H1H 2661   2.545   0.486   4.766
   96ST     C1I 2662   2.568   0.423   4.821
   96ST     H1J 2663   2.605   0.420   4.843
   96ST     H1K 2664   2.558   0.382   4.809
   96ST     C1M 2665   2.524   0.446   4.856
   96ST     H1N 2666   2.502   0.414   4.875
   96ST     H1O 2667   2.496   0.469   4.832
   96ST     C1P 2668   2.547   0.482   4.900
   96ST     H1Q 2669   2.570   0.458   4.928
   96ST     H1R 2670   2.575   0.510   4.882
   96ST     C1S 2671   2.503   0.512   4.930
   96ST     H1T 2672   2.518   0.550   4.946
   96ST     H1U 2673   2.488   0.489   4.963
   96ST     H1V 2674   2.470   0.521   4.903
   97EH     H00 2675   2.297   1.080   3.930
   97EH     C01 2676   2.272   1.047   3.943
   97EH     H02 2677   2.269   1.017   3.911
   97EH     H03 2678   2.292   1.028   3.977
   97EH     C04 2679   2.216   1.067   3.959
   97EH     C05 2680   2.189   1.103   3.930
   97EH     H06 2681   2.171   1.092   3.893
   97EH     H07 2682   2.197   1.146   3.937
   97EH     C08 2683   2.191   1.044   4.008
   97EH     O09 2684   2.195   0.998   4.023
   97EH     O0A 2685   2.164   1.083   4.037
   97EH     C0B 2686   2.147   1.068   4.091
   97EH     H0C 2687   2.181   1.069   4.118
   97EH     H0D 2688   2.132   1.028   4.091
   97EH     C0E 2689   2.101   1.109   4.111
   97EH     H0F 2690   2.105   1.146   4.088
   97EH     C0G 2691   2.043   1.084   4.102
   97EH     H0H 2692   2.035   1.082   4.059
   97EH     H0I 2693   2.013   1.111   4.119
   97EH     C0J 2694   2.038   1.027   4.128
   97EH     H0K 2695   2.024   0.998   4.098
   97EH     H0M 2696   2.009   1.028   4.161
   97EH     H0N 2697   2.076   1.013   4.143
   97EH     C0O 2698   2.110   1.124   4.173
   97EH     H0P 2699   2.096   1.091   4.198
   97EH     H0Q 2700   2.153   1.128   4.181
   97EH     C0R 2701   2.080   1.176   4.189
   97EH     H0S 2702   2.043   1.179   4.166
   97EH     H0T 2703   2.104   1.211   4.178
   97EH     C0U 2704   2.066   1.178   4.250
   97EH     H0V 2705   2.026   1.164   4.256
   97EH     H0W 2706   2.093   1.150   4.271
   97EH     C0X 2707   2.072   1.236   4.273
   97EH     H0Y 2708   2.062   1.236   4.316
   97EH     H0Z 2709   2.046   1.264   4.252
   97EH     H10 2710   2.114   1.250   4.269
   98LA     H00 2711   1.844   1.519   3.476
   98LA     C01 2712   1.864   1.553   3.493
   98LA     H02 2713   1.834   1.578   3.513
   98LA     H03 2714   1.893   1.540   3.522
   98LA     C04 2715   1.890   1.585   3.449
   98LA     C05 2716   1.865   1.625   3.423
   98LA     H06 2717   1.845   1.656   3.446
   98LA     H07 2718   1.853   1.619   3.383
   98LA     C08 2719   1.946   1.572   3.435
   98LA     O09 2720   1.962   1.562   3.390
   98LA     O0A 2721   1.978   1.573   3.478
   98LA     C0B 2722   2.008   1.620   3.487
   98LA     H0C 2723   2.011   1.627   3.529
   98LA     H0D 2724   1.987   1.654   3.469
   98LA     C0E 2725   2.065   1.613   3.461
   98LA     H0F 2726   2.063   1.586   3.426
   98LA     H0G 2727   2.079   1.652   3.446
   98LA     C0H 2728   2.107   1.590   3.503
   98LA     H0I 2729   2.091   1.594   3.543
   98LA     H0J 2730   2.113   1.547   3.496
   98LA     C0K 2731   2.164   1.621   3.499
   98LA     H0M 2732   2.179   1.619   3.457
   98LA     H0N 2733   2.159   1.663   3.509
   98LA     C0O 2734   2.209   1.593   3.538
   98LA     H0P 2735   2.190   1.580   3.576
   98LA     H0Q 2736   2.226   1.558   3.520
   98LA     C0R 2737   2.257   1.635   3.552
   98LA     H0S 2738   2.280   1.643   3.516
   98LA     H0T 2739   2.240   1.673   3.565
   98LA     C0U 2740   2.296   1.613   3.599
   98LA     H0V 2741   2.276   1.580   3.620
   98LA     H0W 2742   2.331   1.596   3.581
   98LA     C0X 2743   2.312   1.658   3.640
   98LA     H0Y 2744   2.298   1.697   3.625
   98LA     H0Z 2745   2.291   1.652   3.678
   98LA     C10 2746   2.374   1.660   3.650
   98LA     H11 2747   2.394   1.673   3.613
   98LA     H12 2748   2.389   1.620   3.660
   98LA     C13 2749   2.389   1.700   3.697
   98LA     H14 2750   2.410   1.678   3.728
   98LA     H15 2751   2.353   1.715   3.715
   98LA     C16 2752   2.425   1.746   3.677
   98LA     H17 2753   2.409   1.784   3.692
   98LA     H18 2754   2.423   1.748   3.634
   98LA     C19 2755   2.483   1.739   3.695
   98LA     H1A 2756   2.487   1.748   3.737
   98LA     H1B 2757   2.509   1.765   3.672
   98LA     H1C 2758   2.496   1.698   3.689
   99EH     H00 2759   1.668   1.935   3.104
   99EH     C01 2760   1.685   1.958   3.137
   99EH     H02 2761   1.656   1.958   3.170
   99EH     H03 2762   1.722   1.939   3.151
   99EH     C04 2763   1.697   2.016   3.119
   99EH     C05 2764   1.663   2.044   3.088
   99EH     H06 2765   1.627   2.060   3.105
   99EH     H07 2766   1.665   2.040   3.045
   99EH     C08 2767   1.748   2.041   3.138
   99EH     O09 2768   1.768   2.034   3.182
   99EH     O0A 2769   1.772   2.071   3.098
   99EH     C0B 2770   1.827   2.089   3.107
   99EH     H0C 2771   1.853   2.056   3.100
   99EH     H0D 2772   1.831   2.101   3.148
   99EH     C0E 2773   1.840   2.137   3.067
   99EH     H0F 2774   1.813   2.136   3.033
   99EH     C0G 2775   1.833   2.193   3.097
   99EH     H0H 2776   1.790   2.200   3.105
   99EH     H0I 2777   1.846   2.225   3.070
   99EH     C0J 2778   1.865   2.195   3.151
   99EH     H0K 2779   1.839   2.207   3.184
   99EH     H0M 2780   1.898   2.225   3.148
   99EH     H0N 2781   1.883   2.157   3.160
   99EH     C0O 2782   1.900   2.131   3.045
   99EH     H0P 2783   1.929   2.144   3.076
   99EH     H0Q 2784   1.909   2.089   3.036
   99EH     C0R 2785   1.909   2.166   2.993
   99EH     H0S 2786   1.885   2.202   2.995
   99EH     H0T 2787   1.895   2.144   2.958
   99EH     C0U 2788   1.969   2.181   2.985
   99EH     H0V 2789   1.976   2.221   3.001
   99EH     H0W 2790   1.994   2.153   3.008
   99EH     C0X 2791   1.986   2.179   2.925
   99EH     H0Y 2792   2.028   2.191   2.919
   99EH     H0Z 2793   1.961   2.206   2.901
   99EH     H10 2794   1.981   2.139   2.908
  100EH     H00 2795   1.313   2.345   3.059
  100EH     C01 2796   1.333   2.348   3.020
  100EH     H02 2797   1.358   2.384   3.020
  100EH     H03 2798   1.358   2.313   3.015
  100EH     C04 2799   1.291   2.351   2.975
  100EH     C05 2800   1.247   2.382   2.978
  100EH     H06 2801   1.250   2.424   2.974
  100EH     H07 2802   1.211   2.366   2.997
  100EH     C08 2803   1.301   2.320   2.925
  100EH     O09 2804   1.345   2.313   2.905
  100EH     O0A 2805   1.255   2.297   2.905
  100EH     C0B 2806   1.260   2.257   2.863
  100EH     H0C 2807   1.273   2.220   2.881
  100EH     H0D 2808   1.291   2.270   2.835
  100EH     C0E 2809   1.205   2.249   2.833
  100EH     H0F 2810   1.172   2.263   2.859
  100EH     C0G 2811   1.203   2.284   2.779
  100EH     H0H 2812   1.202   2.327   2.789
  100EH     H0I 2813   1.166   2.276   2.757
  100EH     C0J 2814   1.253   2.272   2.743
  100EH     H0K 2815   1.274   2.309   2.732
  100EH     H0M 2816   1.240   2.252   2.705
  100EH     H0N 2817   1.281   2.246   2.763
  100EH     C0O 2818   1.194   2.187   2.820
  100EH     H0P 2819   1.219   2.175   2.785
  100EH     H0Q 2820   1.208   2.163   2.854
  100EH     C0R 2821   1.134   2.176   2.808
  100EH     H0S 2822   1.116   2.210   2.788
  100EH     H0T 2823   1.113   2.170   2.845
  100EH     C0U 2824   1.127   2.125   2.773
  100EH     H0V 2825   1.123   2.137   2.731
  100EH     H0W 2826   1.163   2.100   2.775
  100EH     C0X 2827   1.076   2.092   2.790
  100EH     H0Y 2828   1.071   2.057   2.764
  100EH     H0Z 2829   1.040   2.116   2.788
  100EH     H10 2830   1.081   2.077   2.831
  101ST     H00 2831   0.897   2.745   3.341
  101ST     C01 2832   0.871   2.747   3.306
  101ST     H02 2833   0.893   2.736   3.271
  101ST     H03 2834   0.838   2.718   3.311
  101ST     C04 2835   0.848   2.804   3.300
  101ST     C05 2836   0.833   2.833   3.343
  101ST     H06 2837   0.790   2.837   3.353
  101ST     H07 2838   0.860   2.842   3.373
  101ST     C08 2839   0.843   2.827   3.245
  101ST     O09 2840   0.825   2.803   3.206
  101ST     O0A 2841   0.862   2.879   3.243
  101ST     C0B 2842   0.905   2.890   3.205
  101ST     H0C 2843   0.944   2.881   3.225
  101ST     H0D 2844   0.901   2.864   3.172
  101ST     C0E 2845   0.903   2.951   3.188
  101ST     H0F 2846   0.944   2.965   3.179
  101ST     H0G 2847   0.888   2.975   3.221
  101ST     C0H 2848   0.866   2.959   3.136
  101ST     H0I 2849   0.849   2.999   3.137
  101ST     H0J 2850   0.832   2.931   3.138
  101ST     C0K 2851   0.899   2.950   3.081
  101ST     H0M 2852   0.934   2.925   3.088
  101ST     H0N 2853   0.874   2.928   3.052
  101ST     C0O 2854   0.918   3.007   3.054
  101ST     H0P 2855   0.959   3.016   3.066
  101ST     H0Q 2856   0.893   3.039   3.069
  101ST     C0R 2857   0.914   3.005   2.988
  101ST     H0S 2858   0.906   3.046   2.972
  101ST     H0T 2859   0.880   2.980   2.976
  101ST     C0U 2860   0.968   2.982   2.961
  101ST     H0V 2861   0.959   2.962   2.924
  101ST     H0W 2862   0.985   2.951   2.987
  101ST     C0X 2863   1.011   3.029   2.952
  101ST     H0Y 2864   0.996   3.066   2.967
  101ST     H0Z 2865   1.047   3.020   2.973
  101ST     C10 2866   1.025   3.036   2.889
  101ST     H11 2867   1.063   3.016   2.880
  101ST     H12 2868   0.994   3.016   2.865
  101ST     C13 2869   1.029   3.099   2.872
  101ST     H14 2870   1.000   3.107   2.840
  101ST     H15 2871   1.017   3.123   2.906
  101ST     C16 2872   1.088   3.115   2.853
  101ST     H17 2873   1.117   3.087   2.869
  101ST     H18 2874   1.091   3.112   2.809
  101ST     C19 2875   1.104   3.175   2.871
  101ST     H1A 2876   1.078   3.188   2.903
  101ST     H1B 2877   1.145   3.176   2.887
  101ST     C1C 2878   1.100   3.217   2.823
  101ST     H1D 2879   1.098   3.195   2.785
  101ST     H1E 2880   1.063   3.239   2.826
  101ST     C1F 2881   1.149   3.257   2.821
  101ST     H1G 2882   1.137   3.294   2.841
  101ST     H1H 2883   1.182   3.240   2.844
  101ST     C1I 2884   1.167   3.269   2.763
  101ST     H1J 2885   1.155   3.309   2.752
  101ST     H1K 2886   1.148   3.242   2.736
  101ST     C1M 2887   1.228   3.263   2.758
  101ST     H1N 2888   1.238   3.247   2.719
  101ST     H1O 2889   1.243   3.235   2.788
  101ST     C1P 2890   1.256   3.317   2.765
  101ST     H1Q 2891   1.246   3.343   2.731
  101ST     H1R 2892   1.242   3.337   2.801
  101ST     C1S 2893   1.317   3.310   2.768
  101ST     H1T 2894   1.335   3.342   2.791
  101ST     H1U 2895   1.335   3.311   2.729
  101ST     H1V 2896   1.327   3.273   2.787
  102EH     H00 2897   0.709   3.289   3.502
  102EH     C01 2898   0.675   3.281   3.475
  102EH     H02 2899   0.690   3.280   3.433
  102EH     H03 2900   0.659   3.242   3.484
  102EH     C04 2901   0.632   3.324   3.481
  102EH     C05 2902   0.644   3.376   3.486
  102EH     H06 2903   0.656   3.399   3.451
  102EH     H07 2904   0.653   3.393   3.524
  102EH     C08 2905   0.575   3.307   3.481
  102EH     O09 2906   0.556   3.271   3.454
  102EH     O0A 2907   0.545   3.335   3.519
  102EH     C0B 2908   0.491   3.315   3.531
  102EH     H0C 2909   0.495   3.281   3.556
  102EH     H0D 2910   0.472   3.302   3.494
  102EH     C0E 2911   0.457   3.361   3.559
  102EH     H0F 2912   0.484   3.391   3.576
  102EH     C0G 2913   0.420   3.391   3.516
  102EH     H0H 2914   0.445   3.414   3.488
  102EH     H0I 2915   0.394   3.420   3.536
  102EH     C0J 2916   0.385   3.350   3.483
  102EH     H0K 2917   0.390   3.356   3.440
  102EH     H0M 2918   0.342   3.355   3.492
  102EH     H0N 2919   0.396   3.309   3.493
  102EH     C0O 2920   0.421   3.337   3.606
  102EH     H0P 2921   0.386   3.316   3.589
  102EH     H0Q 2922   0.444   3.306   3.628
  102EH     C0R 2923   0.402   3.381   3.646
  102EH     H0S 2924   0.395   3.418   3.624
  102EH     H0T 2925   0.433   3.389   3.675
  102EH     C0U 2926   0.349   3.365   3.675
  102EH     H0V 2927   0.315   3.382   3.655
  102EH     H0W 2928   0.345   3.321   3.674
  102EH     C0X 2929   0.350   3.384   3.735
  102EH     H0Y 2930   0.312   3.373   3.755
  102EH     H0Z 2931   0.354   3.427   3.738
  102EH     H10 2932   0.382   3.365   3.757
  103LA     H00 2933   0.910   4.194   3.538
  103LA     C01 2934   0.911   4.174   3.499
  103LA     H02 2935   0.908   4.205   3.468
  103LA     H03 2936   0.949   4.154   3.495
  103LA     C04 2937   0.865   4.135   3.494
  103LA     C05 2938   0.818   4.149   3.474
  103LA     H06 2939   0.815   4.169   3.435
  103LA     H07 2940   0.784   4.152   3.500
  103LA     C08 2941   0.874   4.080   3.512
  103LA     O09 2942   0.847   4.056   3.543
  103LA     O0A 2943   0.918   4.058   3.488
  103LA     C0B 2944   0.909   4.025   3.443
  103LA     H0C 2945   0.941   4.031   3.415
  103LA     H0D 2946   0.872   4.037   3.424
  103LA     C0E 2947   0.905   3.965   3.461
  103LA     H0F 2948   0.890   3.963   3.502
  103LA     H0G 2949   0.877   3.944   3.436
  103LA     C0H 2950   0.962   3.937   3.459
  103LA     H0I 2951   0.989   3.961   3.435
  103LA     H0J 2952   0.979   3.935   3.499
  103LA     C0K 2953   0.958   3.877   3.434
  103LA     H0M 2954   0.928   3.854   3.456
  103LA     H0N 2955   0.944   3.879   3.392
  103LA     C0O 2956   1.016   3.846   3.436
  103LA     H0P 2957   1.048   3.874   3.428
  103LA     H0Q 2958   1.022   3.830   3.476
  103LA     C0R 2959   1.018   3.797   3.393
  103LA     H0S 2960   0.990   3.766   3.404
  103LA     H0T 2961   1.005   3.812   3.354
  103LA     C0U 2962   1.077   3.773   3.387
  103LA     H0V 2963   1.106   3.801   3.404
  103LA     H0W 2964   1.080   3.737   3.410
  103LA     C0X 2965   1.093   3.762   3.326
  103LA     H0Y 2966   1.057   3.767   3.301
  103LA     H0Z 2967   1.122   3.791   3.312
  103LA     C10 2968   1.116   3.703   3.319
  103LA     H11 2969   1.084   3.674   3.327
  103LA     H12 2970   1.148   3.696   3.348
  103LA     C13 2971   1.138   3.694   3.260
  103LA     H14 2972   1.181   3.684   3.263
  103LA     H15 2973   1.136   3.731   3.238
  103LA     C16 2974   1.108   3.650   3.231
  103LA     H17 2975   1.097   3.664   3.191
  103LA     H18 2976   1.070   3.642   3.251
  103LA     C19 2977   1.140   3.599   3.227
  103LA     H1A 2978   1.172   3.602   3.197
  103LA     H1B 2979   1.115   3.565   3.215
  103LA     H1C 2980   1.159   3.589   3.265
  104EH     H00 2981   0.723   4.541   3.289
  104EH     C01 2982   0.755   4.547   3.259
  104EH     H02 2983   0.750   4.518   3.226
  104EH     H03 2984   0.752   4.587   3.243
  104EH     C04 2985   0.810   4.539   3.285
  104EH     C05 2986   0.820   4.499   3.320
  104EH     H06 2987   0.825   4.459   3.306
  104EH     H07 2988   0.811   4.504   3.362
  104EH     C08 2989   0.854   4.577   3.270
  104EH     O09 2990   0.861   4.596   3.226
  104EH     O0A 2991   0.885   4.590   3.315
  104EH     C0B 2992   0.922   4.635   3.308
  104EH     H0C 2993   0.900   4.672   3.310
  104EH     H0D 2994   0.941   4.632   3.269
  104EH     C0E 2995   0.967   4.633   3.354
  104EH     H0F 2996   0.951   4.609   3.388
  104EH     C0G 2997   1.020   4.605   3.333
  104EH     H0H 2998   1.012   4.562   3.326
  104EH     H0I 2999   1.051   4.607   3.364
  104EH     C0J 3000   1.041   4.631   3.280
  104EH     H0K 3001   1.046   4.601   3.248
  104EH     H0M 3002   1.079   4.652   3.287
  104EH     H0N 3003   1.013   4.661   3.265
  104EH     C0O 3004   0.980   4.692   3.376
  104EH     H0P 3005   1.006   4.713   3.347
  104EH     H0Q 3006   0.943   4.715   3.378
  104EH     C0R 3007   1.008   4.691   3.432
  104EH     H0S 3008   1.033   4.655   3.435
  104EH     H0T 3009   0.978   4.687   3.463
  104EH     C0U 3010   1.042   4.742   3.442
  104EH     H0V 3011   1.083   4.733   3.432
  104EH     H0W 3012   1.028   4.774   3.415
  104EH     C0X 3013   1.038   4.761   3.502
  104EH     H0Y 3014   1.063   4.796   3.508
  104EH     H0Z 3015   1.051   4.729   3.529
  104EH     H10 3016   0.997   4.771   3.512
  105LA     H00 3017   0.654   4.252   3.043
  105LA     C01 3018   0.634   4.281   3.018
  105LA     H02 3019   0.660   4.292   2.985
  105LA     H03 3020   0.598   4.264   3.003
  105LA     C04 3021   0.621   4.331   3.050
  105LA     C05 3022   0.654   4.373   3.053
  105LA     H06 3023   0.671   4.390   3.017
  105LA     H07 3024   0.675   4.381   3.090
  105LA     C08 3025   0.569   4.333   3.078
  105LA     O09 3026   0.564   4.343   3.125
  105LA     O0A 3027   0.528   4.323   3.045
  105LA     C0B 3028   0.501   4.368   3.024
  105LA     H0C 3029   0.488   4.360   2.984
  105LA     H0D 3030   0.528   4.402   3.023
  105LA     C0E 3031   0.451   4.381   3.060
  105LA     H0F 3032   0.459   4.368   3.102
  105LA     H0G 3033   0.444   4.424   3.061
  105LA     C0H 3034   0.399   4.351   3.040
  105LA     H0I 3035   0.405   4.337   2.999
  105LA     H0J 3036   0.392   4.315   3.064
  105LA     C0K 3037   0.347   4.390   3.042
  105LA     H0M 3038   0.342   4.406   3.082
  105LA     H0N 3039   0.353   4.424   3.015
  105LA     C0O 3040   0.292   4.358   3.025
  105LA     H0P 3041   0.301   4.329   2.993
  105LA     H0Q 3042   0.277   4.335   3.059
  105LA     C0R 3043   0.246   4.399   3.005
  105LA     H0S 3044   0.232   4.423   3.039
  105LA     H0T 3045   0.262   4.427   2.976
  105LA     C0U 3046   0.196   4.367   2.979
  105LA     H0V 3047   0.208   4.327   2.969
  105LA     H0W 3048   0.164   4.364   3.008
  105LA     C0X 3049   0.174   4.397   2.926
  105LA     H0Y 3050   0.194   4.436   2.922
  105LA     H0Z 3051   0.185   4.374   2.891
  105LA     C10 3052   0.111   4.405   2.928
  105LA     H11 3053   0.101   4.433   2.960
  105LA     H12 3054   0.092   4.367   2.938
  105LA     C13 3055   0.089   4.427   2.873
  105LA     H14 3056   0.060   4.398   2.857
  105LA     H15 3057   0.121   4.429   2.844
  105LA     C16 3058   0.063   4.482   2.880
  105LA     H17 3059   0.078   4.509   2.848
  105LA     H18 3060   0.075   4.499   2.918
  105LA     C19 3061   0.002   4.479   2.877
  105LA     H1A 3062  -0.011   4.473   2.836
  105LA     H1B 3063  -0.016   4.515   2.892
  105LA     H1C 3064  -0.013   4.445   2.901
  106ST     H00 3065   4.373   3.935   3.478
  106ST     C01 3066   4.385   3.962   3.510
  106ST     H02 3067   4.414   3.989   3.495
  106ST     H03 3068   4.350   3.985   3.523
  106ST     C04 3069   4.408   3.930   3.556
  106ST     C05 3070   4.387   3.883   3.573
  106ST     H06 3071   4.361   3.881   3.607
  106ST     H07 3072   4.385   3.850   3.546
  106ST     C08 3073   4.455   3.953   3.586
  106ST     O09 3074   4.460   4.000   3.600
  106ST     O0A 3075   4.494   3.914   3.595
  106ST     C0B 3076   4.547   3.925   3.573
  106ST     H0C 3077   4.549   3.911   3.531
  106ST     H0D 3078   4.554   3.967   3.573
  106ST     C0E 3079   4.591   3.895   3.608
  106ST     H0F 3080   4.625   3.884   3.582
  106ST     H0G 3081   4.574   3.857   3.623
  106ST     C0H 3082   4.612   3.931   3.656
  106ST     H0I 3083   4.624   3.905   3.689
  106ST     H0J 3084   4.578   3.955   3.671
  106ST     C0K 3085   4.661   3.970   3.638
  106ST     H0M 3086   4.660   3.976   3.595
  106ST     H0N 3087   4.656   4.009   3.656
  106ST     C0O 3088   4.719   3.945   3.655
  106ST     H0P 3089   4.737   3.923   3.622
  106ST     H0Q 3090   4.714   3.916   3.688
  106ST     C0R 3091   4.761   3.992   3.675
  106ST     H0S 3092   4.789   3.976   3.704
  106ST     H0T 3093   4.739   4.024   3.695
  106ST     C0U 3094   4.794   4.017   3.625
  106ST     H0V 3095   4.804   4.058   3.633
  106ST     H0W 3096   4.768   4.018   3.590
  106ST     C0X 3097   4.847   3.983   3.613
  106ST     H0Y 3098   4.849   3.949   3.639
  106ST     H0Z 3099   4.846   3.968   3.572
  106ST     C10 3100   4.901   4.019   3.620
  106ST     H11 3101   4.915   4.032   3.582
  106ST     H12 3102   4.891   4.055   3.643
  106ST     C13 3103   4.947   3.986   3.651
  106ST     H14 3104   4.959   4.007   3.687
  106ST     H15 3105   4.932   3.947   3.663
  106ST     C16 3106   4.999   3.977   3.613
  106ST     H17 3107   4.987   3.980   3.571
  106ST     H18 3108   5.028   4.009   3.620
  106ST     C19 3109   5.027   3.919   3.623
  106ST     H1A 3110   4.999   3.893   3.643
  106ST     H1B 3111   5.037   3.901   3.584
  106ST     C1C 3112   5.080   3.924   3.658
  106ST     H1D 3113   5.093   3.966   3.659
  106ST     H1E 3114   5.071   3.913   3.699
  106ST     C1F 3115   5.127   3.888   3.636
  106ST     H1G 3116   5.128   3.851   3.657
  106ST     H1H 3117   5.119   3.879   3.594
  106ST     C1I 3118   5.182   3.916   3.640
  106ST     H1J 3119   5.205   3.898   3.672
  106ST     H1K 3120   5.176   3.958   3.652
  106ST     C1M 3121   5.213   3.913   3.588
  106ST     H1N 3122   5.236   3.950   3.582
  106ST     H1O 3123   5.185   3.910   3.554
  106ST     C1P 3124   5.252   3.866   3.587
  106ST     H1Q 3125   5.283   3.873   3.616
  106ST     H1R 3126   5.231   3.830   3.599
  106ST     C1S 3127   5.276   3.858   3.532
  106ST     H1T 3128   5.287   3.816   3.525
  106ST     H1U 3129   5.312   3.881   3.527
  106ST     H1V 3130   5.248   3.870   3.500
  107ST     H00 3131   0.508   2.929   3.465
  107ST     C01 3132   0.491   2.969   3.467
  107ST     H02 3133   0.464   2.970   3.500
  107ST     H03 3134   0.524   2.997   3.475
  107ST     C04 3135   0.463   2.982   3.415
  107ST     C05 3136   0.483   2.969   3.367
  107ST     H06 3137   0.504   2.998   3.343
  107ST     H07 3138   0.489   2.928   3.358
  107ST     C08 3139   0.411   3.013   3.418
  107ST     O09 3140   0.404   3.052   3.447
  107ST     O0A 3141   0.373   2.992   3.385
  107ST     C0B 3142   0.323   2.974   3.410
  107ST     H0C 3143   0.328   2.933   3.425
  107ST     H0D 3144   0.315   2.999   3.443
  107ST     C0E 3145   0.276   2.977   3.367
  107ST     H0F 3146   0.246   2.946   3.376
  107ST     H0G 3147   0.291   2.968   3.327
  107ST     C0H 3148   0.248   3.034   3.367
  107ST     H0I 3149   0.231   3.043   3.328
  107ST     H0J 3150   0.278   3.065   3.375
  107ST     C0K 3151   0.200   3.038   3.412
  107ST     H0M 3152   0.207   3.008   3.443
  107ST     H0N 3153   0.201   3.076   3.432
  107ST     C0O 3154   0.141   3.029   3.386
  107ST     H0P 3155   0.129   2.987   3.390
  107ST     H0Q 3156   0.142   3.037   3.343
  107ST     C0R 3157   0.095   3.067   3.414
  107ST     H0S 3158   0.063   3.077   3.384
  107ST     H0T 3159   0.113   3.105   3.425
  107ST     C0U 3160   0.069   3.039   3.466
  107ST     H0V 3161   0.056   3.070   3.494
  107ST     H0W 3162   0.099   3.015   3.486
  107ST     C0X 3163   0.019   3.002   3.450
  107ST     H0Y 3164   0.014   3.001   3.407
  107ST     H0Z 3165   0.026   2.962   3.462
  107ST     C10 3166  -0.036   3.023   3.476
  107ST     H11 3167  -0.046   2.999   3.512
  107ST     H12 3168  -0.031   3.064   3.490
  107ST     C13 3169  -0.086   3.020   3.434
  107ST     H14 3170  -0.103   3.060   3.430
  107ST     H15 3171  -0.071   3.009   3.395
  107ST     C16 3172  -0.132   2.979   3.454
  107ST     H17 3173  -0.114   2.950   3.481
  107ST     H18 3174  -0.162   3.000   3.476
  107ST     C19 3175  -0.159   2.948   3.404
  107ST     H1A 3176  -0.133   2.950   3.369
  107ST     H1B 3177  -0.163   2.905   3.413
  107ST     C1C 3178  -0.216   2.972   3.389
  107ST     H1D 3179  -0.230   2.996   3.422
  107ST     H1E 3180  -0.213   2.998   3.355
  107ST     C1F 3181  -0.258   2.926   3.378
  107ST     H1G 3182  -0.261   2.920   3.335
  107ST     H1H 3183  -0.244   2.888   3.395
  107ST     C1I 3184  -0.315   2.940   3.400
  107ST     H1J 3185  -0.341   2.950   3.368
  107ST     H1K 3186  -0.312   2.975   3.426
  107ST     C1M 3187  -0.338   2.893   3.432
  107ST     H1N 3188  -0.360   2.908   3.466
  107ST     H1O 3189  -0.306   2.868   3.448
  107ST     C1P 3190  -0.375   2.858   3.397
  107ST     H1Q 3191  -0.410   2.881   3.387
  107ST     H1R 3192  -0.354   2.848   3.360
  107ST     C1S 3193  -0.391   2.807   3.426
  107ST     H1T 3194  -0.399   2.775   3.397
  107ST     H1U 3195  -0.426   2.813   3.450
  107ST     H1V 3196  -0.359   2.793   3.452
  108ST     H00 3197   4.360   2.164   2.829
  108ST     C01 3198   4.383   2.200   2.819
  108ST     H02 3199   4.410   2.190   2.787
  108ST     H03 3200   4.355   2.230   2.805
  108ST     C04 3201   4.414   2.220   2.868
  108ST     C05 3202   4.393   2.219   2.918
  108ST     H06 3203   4.377   2.256   2.935
  108ST     H07 3204   4.381   2.183   2.935
  108ST     C08 3205   4.469   2.242   2.859
  108ST     O09 3206   4.482   2.273   2.823
  108ST     O0A 3207   4.505   2.222   2.897
  108ST     C0B 3208   4.551   2.193   2.877
  108ST     H0C 3209   4.540   2.151   2.871
  108ST     H0D 3210   4.562   2.209   2.839
  108ST     C0E 3211   4.599   2.198   2.918
  108ST     H0F 3212   4.624   2.162   2.916
  108ST     H0G 3213   4.583   2.200   2.959
  108ST     C0H 3214   4.635   2.249   2.907
  108ST     H0I 3215   4.653   2.263   2.944
  108ST     H0J 3216   4.609   2.282   2.892
  108ST     C0K 3217   4.682   2.237   2.863
  108ST     H0M 3218   4.670   2.203   2.839
  108ST     H0N 3219   4.686   2.271   2.836
  108ST     C0O 3220   4.740   2.225   2.892
  108ST     H0P 3221   4.746   2.182   2.896
  108ST     H0Q 3222   4.740   2.242   2.932
  108ST     C0R 3223   4.790   2.251   2.857
  108ST     H0S 3224   4.823   2.261   2.884
  108ST     H0T 3225   4.777   2.287   2.838
  108ST     C0U 3226   4.811   2.209   2.812
  108ST     H0V 3227   4.828   2.231   2.778
  108ST     H0W 3228   4.778   2.186   2.797
  108ST     C0X 3229   4.856   2.169   2.836
  108ST     H0Y 3230   4.861   2.177   2.878
  108ST     H0Z 3231   4.842   2.129   2.832
  108ST     C10 3232   4.913   2.177   2.806
  108ST     H11 3233   4.918   2.145   2.777
  108ST     H12 3234   4.913   2.214   2.784
  108ST     C13 3235   4.962   2.176   2.849
  108ST     H14 3236   4.985   2.212   2.845
  108ST     H15 3237   4.947   2.174   2.889
  108ST     C16 3238   5.001   2.125   2.839
  108ST     H17 3239   4.979   2.094   2.817
  108ST     H18 3240   5.034   2.137   2.813
  108ST     C19 3241   5.025   2.101   2.895
  108ST     H1A 3242   5.000   2.114   2.928
  108ST     H1B 3243   5.022   2.057   2.894
  108ST     C1C 3244   5.085   2.119   2.904
  108ST     H1D 3245   5.102   2.134   2.867
  108ST     H1E 3246   5.086   2.152   2.933
  108ST     C1F 3247   5.121   2.071   2.926
  108ST     H1G 3248   5.123   2.074   2.969
  108ST     H1H 3249   5.101   2.034   2.917
  108ST     C1I 3250   5.178   2.072   2.902
  108ST     H1J 3251   5.206   2.085   2.932
  108ST     H1K 3252   5.179   2.101   2.869
  108ST     C1M 3253   5.194   2.017   2.881
  108ST     H1N 3254   5.218   2.022   2.845
  108ST     H1O 3255   5.158   1.995   2.869
  108ST     C1P 3256   5.226   1.986   2.922
  108ST     H1Q 3257   5.264   2.005   2.928
  108ST     H1R 3258   5.205   1.986   2.961
  108ST     C1S 3259   5.234   1.927   2.905
  108ST     H1T 3260   5.238   1.901   2.939
  108ST     H1U 3261   5.270   1.924   2.881
  108ST     H1V 3262   5.201   1.913   2.881
  109EH     H00 3263   4.282   2.050   2.561
  109EH     C01 3264   4.250   2.080   2.568
  109EH     H02 3265   4.231   2.070   2.607
  109EH     H03 3266   4.268   2.119   2.571
  109EH     C04 3267   4.208   2.078   2.523
  109EH     C05 3268   4.190   2.031   2.502
  109EH     H06 3269   4.162   2.007   2.524
  109EH     H07 3270   4.212   2.012   2.470
  109EH     C08 3271   4.186   2.129   2.503
  109EH     O09 3272   4.177   2.169   2.530
  109EH     O0A 3273   4.180   2.129   2.448
  109EH     C0B 3274   4.169   2.180   2.422
  109EH     H0C 3275   4.206   2.202   2.419
  109EH     H0D 3276   4.142   2.203   2.446
  109EH     C0E 3277   4.145   2.170   2.363
  109EH     H0F 3278   4.156   2.129   2.350
  109EH     C0G 3279   4.082   2.174   2.364
  109EH     H0H 3280   4.065   2.140   2.387
  109EH     H0I 3281   4.066   2.170   2.324
  109EH     C0J 3282   4.062   2.228   2.390
  109EH     H0K 3283   4.034   2.221   2.422
  109EH     H0M 3284   4.042   2.254   2.359
  109EH     H0N 3285   4.096   2.250   2.406
  109EH     C0O 3286   4.170   2.212   2.321
  109EH     H0P 3287   4.150   2.250   2.326
  109EH     H0Q 3288   4.212   2.218   2.329
  109EH     C0R 3289   4.163   2.192   2.262
  109EH     H0S 3290   4.125   2.170   2.258
  109EH     H0T 3291   4.194   2.164   2.252
  109EH     C0U 3292   4.162   2.239   2.222
  109EH     H0V 3293   4.121   2.251   2.213
  109EH     H0W 3294   4.182   2.274   2.240
  109EH     C0X 3295   4.192   2.224   2.168
  109EH     H0Y 3296   4.190   2.258   2.140
  109EH     H0Z 3297   4.174   2.189   2.149
  109EH     H10 3298   4.234   2.215   2.176
  110LA     H00 3299   3.898   1.718   2.670
  110LA     C01 3300   3.926   1.697   2.695
  110LA     H02 3301   3.916   1.704   2.736
  110LA     H03 3302   3.922   1.654   2.687
  110LA     C04 3303   3.982   1.716   2.684
  110LA     C05 3304   4.005   1.756   2.710
  110LA     H06 3305   4.004   1.756   2.754
  110LA     H07 3306   4.011   1.793   2.691
  110LA     C08 3307   4.013   1.688   2.642
  110LA     O09 3308   4.035   1.710   2.604
  110LA     O0A 3309   4.014   1.635   2.650
  110LA     C0B 3310   4.061   1.614   2.675
  110LA     H0C 3311   4.050   1.581   2.701
  110LA     H0D 3312   4.078   1.645   2.700
  110LA     C0E 3313   4.101   1.595   2.631
  110LA     H0F 3314   4.097   1.620   2.595
  110LA     H0G 3315   4.142   1.602   2.646
  110LA     C0H 3316   4.093   1.534   2.617
  110LA     H0I 3317   4.069   1.515   2.648
  110LA     H0J 3318   4.071   1.530   2.579
  110LA     C0K 3319   4.150   1.503   2.611
  110LA     H0M 3320   4.176   1.524   2.583
  110LA     H0N 3321   4.171   1.503   2.650
  110LA     C0O 3322   4.142   1.441   2.592
  110LA     H0P 3323   4.106   1.424   2.610
  110LA     H0Q 3324   4.137   1.440   2.548
  110LA     C0R 3325   4.193   1.404   2.608
  110LA     H0S 3326   4.228   1.416   2.584
  110LA     H0T 3327   4.203   1.410   2.650
  110LA     C0U 3328   4.182   1.341   2.598
  110LA     H0V 3329   4.139   1.335   2.593
  110LA     H0W 3330   4.200   1.329   2.560
  110LA     C0X 3331   4.204   1.305   2.645
  110LA     H0Y 3332   4.229   1.330   2.672
  110LA     H0Z 3333   4.171   1.290   2.669
  110LA     C10 3334   4.239   1.257   2.623
  110LA     H11 3335   4.275   1.272   2.605
  110LA     H12 3336   4.217   1.236   2.592
  110LA     C13 3337   4.255   1.217   2.669
  110LA     H14 3338   4.239   1.177   2.660
  110LA     H15 3339   4.236   1.229   2.707
  110LA     C16 3340   4.316   1.214   2.677
  110LA     H17 3341   4.325   1.217   2.719
  110LA     H18 3342   4.335   1.248   2.657
  110LA     C19 3343   4.339   1.162   2.655
  110LA     H1A 3344   4.330   1.128   2.681
  110LA     H1B 3345   4.382   1.164   2.651
  110LA     H1C 3346   4.322   1.153   2.616
  111ST     H00 3347   3.687   1.823   2.594
  111ST     C01 3348   3.707   1.858   2.610
  111ST     H02 3349   3.719   1.851   2.650
  111ST     H03 3350   3.742   1.866   2.585
  111ST     C04 3351   3.669   1.906   2.608
  111ST     C05 3352   3.635   1.914   2.566
  111ST     H06 3353   3.645   1.943   2.535
  111ST     H07 3354   3.606   1.885   2.556
  111ST     C08 3355   3.670   1.945   2.653
  111ST     O09 3356   3.711   1.963   2.673
  111ST     O0A 3357   3.619   1.959   2.670
  111ST     C0B 3358   3.606   1.948   2.725
  111ST     H0C 3359   3.592   1.906   2.729
  111ST     H0D 3360   3.641   1.953   2.749
  111ST     C0E 3361   3.560   1.988   2.745
  111ST     H0F 3362   3.536   1.969   2.776
  111ST     H0G 3363   3.534   1.998   2.711
  111ST     C0H 3364   3.585   2.042   2.768
  111ST     H0I 3365   3.557   2.075   2.762
  111ST     H0J 3366   3.622   2.053   2.745
  111ST     C0K 3367   3.600   2.037   2.832
  111ST     H0M 3368   3.605   1.995   2.842
  111ST     H0N 3369   3.638   2.056   2.840
  111ST     C0O 3370   3.553   2.063   2.870
  111ST     H0P 3371   3.525   2.032   2.883
  111ST     H0Q 3372   3.530   2.092   2.846
  111ST     C0R 3373   3.579   2.094   2.922
  111ST     H0S 3374   3.552   2.127   2.935
  111ST     H0T 3375   3.617   2.111   2.912
  111ST     C0U 3376   3.587   2.053   2.972
  111ST     H0V 3377   3.620   2.066   2.996
  111ST     H0W 3378   3.597   2.013   2.957
  111ST     C0X 3379   3.533   2.048   3.008
  111ST     H0Y 3380   3.502   2.072   2.990
  111ST     H0Z 3381   3.520   2.008   3.008
  111ST     C10 3382   3.543   2.069   3.068
  111ST     H11 3383   3.549   2.035   3.094
  111ST     H12 3384   3.581   2.092   3.070
  111ST     C13 3385   3.494   2.105   3.090
  111ST     H14 3386   3.509   2.144   3.102
  111ST     H15 3387   3.466   2.112   3.058
  111ST     C16 3388   3.464   2.077   3.140
  111ST     H17 3389   3.471   2.034   3.139
  111ST     H18 3390   3.481   2.092   3.177
  111ST     C19 3391   3.400   2.088   3.139
  111ST     H1A 3392   3.388   2.100   3.099
  111ST     H1B 3393   3.378   2.051   3.148
  111ST     C1C 3394   3.383   2.133   3.181
  111ST     H1D 3395   3.415   2.140   3.209
  111ST     H1E 3396   3.377   2.171   3.160
  111ST     C1F 3397   3.330   2.118   3.212
  111ST     H1G 3398   3.296   2.136   3.193
  111ST     H1H 3399   3.324   2.075   3.209
  111ST     C1I 3400   3.332   2.135   3.271
  111ST     H1J 3401   3.306   2.169   3.278
  111ST     H1K 3402   3.373   2.148   3.281
  111ST     C1M 3403   3.316   2.089   3.309
  111ST     H1N 3404   3.340   2.090   3.345
  111ST     H1O 3405   3.324   2.051   3.289
  111ST     C1P 3406   3.257   2.092   3.323
  111ST     H1Q 3407   3.250   2.127   3.348
  111ST     H1R 3408   3.233   2.098   3.287
  111ST     C1S 3409   3.238   2.042   3.353
  111ST     H1T 3410   3.196   2.035   3.346
  111ST     H1U 3411   3.244   2.046   3.396
  111ST     H1V 3412   3.260   2.007   3.339
  112EH     H00 3413   3.654   2.026   2.265
  112EH     C01 3414   3.640   2.046   2.228
  112EH     H02 3415   3.655   2.088   2.229
  112EH     H03 3416   3.656   2.026   2.194
  112EH     C04 3417   3.578   2.046   2.226
  112EH     C05 3418   3.548   2.056   2.269
  112EH     H06 3419   3.543   2.096   2.284
  112EH     H07 3420   3.538   2.023   2.297
  112EH     C08 3421   3.552   2.035   2.173
  112EH     O09 3422   3.569   2.050   2.130
  112EH     O0A 3423   3.507   2.002   2.179
  112EH     C0B 3424   3.485   1.980   2.130
  112EH     H0C 3425   3.510   1.947   2.117
  112EH     H0D 3426   3.486   2.010   2.099
  112EH     C0E 3427   3.425   1.960   2.141
  112EH     H0F 3428   3.420   1.954   2.184
  112EH     C0G 3429   3.383   2.004   2.123
  112EH     H0H 3430   3.386   2.039   2.149
  112EH     H0I 3431   3.343   1.989   2.127
  112EH     C0J 3432   3.393   2.022   2.063
  112EH     H0K 3433   3.397   2.065   2.060
  112EH     H0M 3434   3.359   2.009   2.037
  112EH     H0N 3435   3.429   2.003   2.047
  112EH     C0O 3436   3.414   1.904   2.111
  112EH     H0P 3437   3.407   1.912   2.069
  112EH     H0Q 3438   3.449   1.878   2.114
  112EH     C0R 3439   3.364   1.875   2.135
  112EH     H0S 3440   3.335   1.904   2.149
  112EH     H0T 3441   3.376   1.852   2.170
  112EH     C0U 3442   3.338   1.836   2.094
  112EH     H0V 3443   3.304   1.856   2.075
  112EH     H0W 3444   3.367   1.827   2.063
  112EH     C0X 3445   3.318   1.783   2.121
  112EH     H0Y 3446   3.298   1.757   2.092
  112EH     H0Z 3447   3.289   1.792   2.153
  112EH     H10 3448   3.351   1.761   2.139
  113LA     H00 3449   3.711   2.940   2.277
  113LA     C01 3450   3.691   2.902   2.281
  113LA     H02 3451   3.654   2.903   2.257
  113LA     H03 3452   3.717   2.871   2.265
  113LA     C04 3453   3.678   2.891   2.338
  113LA     C05 3454   3.632   2.906   2.361
  113LA     H06 3455   3.594   2.895   2.342
  113LA     H07 3456   3.631   2.938   2.389
  113LA     C08 3457   3.718   2.863   2.371
  113LA     O09 3458   3.736   2.878   2.413
  113LA     O0A 3459   3.733   2.816   2.348
  113LA     C0B 3460   3.708   2.769   2.367
  113LA     H0C 3461   3.702   2.742   2.334
  113LA     H0D 3462   3.669   2.779   2.383
  113LA     C0E 3463   3.744   2.743   2.412
  113LA     H0F 3464   3.766   2.775   2.433
  113LA     H0G 3465   3.718   2.724   2.441
  113LA     C0H 3466   3.784   2.701   2.387
  113LA     H0I 3467   3.772   2.690   2.347
  113LA     H0J 3468   3.824   2.719   2.384
  113LA     C0K 3469   3.788   2.647   2.424
  113LA     H0M 3470   3.797   2.659   2.466
  113LA     H0N 3471   3.748   2.627   2.425
  113LA     C0O 3472   3.833   2.605   2.402
  113LA     H0P 3473   3.834   2.606   2.358
  113LA     H0Q 3474   3.872   2.618   2.416
  113LA     C0R 3475   3.822   2.545   2.423
  113LA     H0S 3476   3.828   2.543   2.466
  113LA     H0T 3477   3.780   2.535   2.415
  113LA     C0U 3478   3.860   2.502   2.393
  113LA     H0V 3479   3.877   2.520   2.357
  113LA     H0W 3480   3.893   2.492   2.419
  113LA     C0X 3481   3.828   2.449   2.377
  113LA     H0Y 3482   3.788   2.450   2.395
  113LA     H0Z 3483   3.822   2.448   2.334
  113LA     C10 3484   3.858   2.397   2.396
  113LA     H11 3485   3.859   2.395   2.440
  113LA     H12 3486   3.900   2.399   2.383
  113LA     C13 3487   3.831   2.345   2.374
  113LA     H14 3488   3.860   2.322   2.350
  113LA     H15 3489   3.799   2.355   2.347
  113LA     C16 3490   3.810   2.309   2.419
  113LA     H17 3491   3.769   2.296   2.410
  113LA     H18 3492   3.808   2.332   2.456
  113LA     C19 3493   3.846   2.259   2.427
  113LA     H1A 3494   3.839   2.230   2.396
  113LA     H1B 3495   3.837   2.240   2.465
  113LA     H1C 3496   3.888   2.270   2.427
  114EH     H00 3497   3.570   3.247   2.529
  114EH     C01 3498   3.609   3.226   2.532
  114EH     H02 3499   3.605   3.194   2.562
  114EH     H03 3500   3.619   3.209   2.493
  114EH     C04 3501   3.653   3.266   2.550
  114EH     C05 3502   3.645   3.303   2.588
  114EH     H06 3503   3.644   3.291   2.629
  114EH     H07 3504   3.627   3.341   2.578
  114EH     C08 3505   3.706   3.262   2.524
  114EH     O09 3506   3.728   3.220   2.510
  114EH     O0A 3507   3.728   3.312   2.513
  114EH     C0B 3508   3.775   3.314   2.478
  114EH     H0C 3509   3.762   3.309   2.437
  114EH     H0D 3510   3.801   3.281   2.488
  114EH     C0E 3511   3.805   3.370   2.486
  114EH     H0F 3512   3.777   3.399   2.503
  114EH     C0G 3513   3.854   3.363   2.526
  114EH     H0H 3514   3.839   3.355   2.567
  114EH     H0I 3515   3.876   3.401   2.528
  114EH     C0J 3516   3.893   3.317   2.509
  114EH     H0K 3517   3.899   3.288   2.542
  114EH     H0M 3518   3.932   3.332   2.497
  114EH     H0N 3519   3.876   3.295   2.475
  114EH     C0O 3520   3.826   3.392   2.429
  114EH     H0P 3521   3.862   3.370   2.417
  114EH     H0Q 3522   3.795   3.385   2.398
  114EH     C0R 3523   3.838   3.454   2.432
  114EH     H0S 3524   3.853   3.464   2.471
  114EH     H0T 3525   3.801   3.476   2.427
  114EH     C0U 3526   3.879   3.471   2.389
  114EH     H0V 3527   3.919   3.471   2.406
  114EH     H0W 3528   3.880   3.441   2.357
  114EH     C0X 3529   3.866   3.527   2.364
  114EH     H0Y 3530   3.896   3.539   2.335
  114EH     H0Z 3531   3.864   3.558   2.396
  114EH     H10 3532   3.827   3.526   2.344
  115EH     H00 3533   3.567   3.560   2.840
  115EH     C01 3534   3.526   3.555   2.824
  115EH     H02 3535   3.522   3.579   2.788
  115EH     H03 3536   3.520   3.513   2.814
  115EH     C04 3537   3.485   3.573   2.867
  115EH     C05 3538   3.491   3.617   2.896
  115EH     H06 3539   3.485   3.656   2.879
  115EH     H07 3540   3.514   3.616   2.933
  115EH     C08 3541   3.436   3.540   2.874
  115EH     O09 3542   3.412   3.517   2.838
  115EH     O0A 3543   3.422   3.535   2.927
  115EH     C0B 3544   3.381   3.495   2.941
  115EH     H0C 3545   3.400   3.456   2.940
  115EH     H0D 3546   3.350   3.495   2.911
  115EH     C0E 3547   3.357   3.508   2.999
  115EH     H0F 3548   3.385   3.533   3.021
  115EH     C0G 3549   3.302   3.540   2.993
  115EH     H0H 3550   3.310   3.580   2.977
  115EH     H0I 3551   3.284   3.545   3.032
  115EH     C0J 3552   3.261   3.510   2.955
  115EH     H0K 3553   3.247   3.537   2.923
  115EH     H0M 3554   3.226   3.496   2.978
  115EH     H0N 3555   3.280   3.476   2.936
  115EH     C0O 3556   3.348   3.453   3.032
  115EH     H0P 3557   3.312   3.433   3.017
  115EH     H0Q 3558   3.381   3.426   3.025
  115EH     C0R 3559   3.342   3.465   3.093
  115EH     H0S 3560   3.323   3.503   3.099
  115EH     H0T 3561   3.382   3.468   3.111
  115EH     C0U 3562   3.310   3.420   3.122
  115EH     H0V 3563   3.269   3.432   3.126
  115EH     H0W 3564   3.311   3.383   3.097
  115EH     C0X 3565   3.334   3.407   3.179
  115EH     H0Y 3566   3.310   3.376   3.199
  115EH     H0Z 3567   3.334   3.443   3.204
  115EH     H10 3568   3.375   3.392   3.176
  116EH     H00 3569   3.625   4.242   2.705
  116EH     C01 3570   3.660   4.247   2.731
  116EH     H02 3571   3.692   4.265   2.706
  116EH     H03 3572   3.651   4.275   2.763
  116EH     C04 3573   3.678   4.193   2.753
  116EH     C05 3574   3.679   4.148   2.723
  116EH     H06 3575   3.710   4.142   2.694
  116EH     H07 3576   3.643   4.124   2.719
  116EH     C08 3577   3.697   4.191   2.810
  116EH     O09 3578   3.721   4.225   2.833
  116EH     O0A 3579   3.678   4.144   2.835
  116EH     C0B 3580   3.684   4.142   2.893
  116EH     H0C 3581   3.653   4.166   2.911
  116EH     H0D 3582   3.722   4.159   2.905
  116EH     C0E 3583   3.679   4.081   2.913
  116EH     H0F 3584   3.658   4.058   2.882
  116EH     C0G 3585   3.737   4.056   2.922
  116EH     H0H 3586   3.757   4.052   2.883
  116EH     H0I 3587   3.734   4.016   2.938
  116EH     C0J 3588   3.773   4.092   2.960
  116EH     H0K 3589   3.811   4.102   2.941
  116EH     H0M 3590   3.781   4.071   2.998
  116EH     H0N 3591   3.752   4.129   2.969
  116EH     C0O 3592   3.645   4.078   2.968
  116EH     H0P 3593   3.670   4.091   3.001
  116EH     H0Q 3594   3.611   4.106   2.966
  116EH     C0R 3595   3.624   4.020   2.978
  116EH     H0S 3596   3.653   3.991   2.963
  116EH     H0T 3597   3.587   4.013   2.955
  116EH     C0U 3598   3.613   4.009   3.038
  116EH     H0V 3599   3.648   3.990   3.056
  116EH     H0W 3600   3.609   4.048   3.059
  116EH     C0X 3601   3.562   3.974   3.047
  116EH     H0Y 3602   3.556   3.966   3.090
  116EH     H0Z 3603   3.566   3.936   3.026
  116EH     H10 3604   3.527   3.994   3.032
  117LA     H00 3605   3.926   4.367   2.561
  117LA     C01 3606   3.894   4.395   2.568
  117LA     H02 3607   3.872   4.383   2.604
  117LA     H03 3608   3.911   4.435   2.574
  117LA     C04 3609   3.856   4.396   2.521
  117LA     C05 3610   3.813   4.364   2.518
  117LA     H06 3611   3.785   4.362   2.551
  117LA     H07 3612   3.813   4.332   2.490
  117LA     C08 3613   3.868   4.433   2.477
  117LA     O09 3614   3.871   4.421   2.430
  117LA     O0A 3615   3.873   4.484   2.495
  117LA     C0B 3616   3.827   4.517   2.491
  117LA     H0C 3617   3.826   4.544   2.525
  117LA     H0D 3618   3.791   4.493   2.491
  117LA     C0E 3619   3.831   4.550   2.437
  117LA     H0F 3620   3.853   4.527   2.407
  117LA     H0G 3621   3.791   4.557   2.421
  117LA     C0H 3622   3.860   4.606   2.446
  117LA     H0I 3623   3.861   4.615   2.488
  117LA     H0J 3624   3.901   4.604   2.432
  117LA     C0K 3625   3.829   4.654   2.414
  117LA     H0M 3626   3.825   4.643   2.372
  117LA     H0N 3627   3.789   4.659   2.431
  117LA     C0O 3628   3.862   4.711   2.419
  117LA     H0P 3629   3.880   4.715   2.459
  117LA     H0Q 3630   3.894   4.712   2.390
  117LA     C0R 3631   3.822   4.762   2.409
  117LA     H0S 3632   3.810   4.762   2.367
  117LA     H0T 3633   3.786   4.757   2.433
  117LA     C0U 3634   3.851   4.817   2.423
  117LA     H0V 3635   3.886   4.810   2.448
  117LA     H0W 3636   3.866   4.836   2.387
  117LA     C0X 3637   3.811   4.857   2.454
  117LA     H0Y 3638   3.771   4.841   2.453
  117LA     H0Z 3639   3.823   4.860   2.496
  117LA     C10 3640   3.811   4.915   2.428
  117LA     H11 3641   3.794   4.913   2.388
  117LA     H12 3642   3.853   4.929   2.423
  117LA     C13 3643   3.779   4.956   2.462
  117LA     H14 3644   3.805   4.989   2.474
  117LA     H15 3645   3.765   4.937   2.499
  117LA     C16 3646   3.730   4.978   2.432
  117LA     H17 3647   3.695   4.977   2.457
  117LA     H18 3648   3.722   4.953   2.397
  117LA     C19 3649   3.740   5.036   2.413
  117LA     H1A 3650   3.736   5.064   2.446
  117LA     H1B 3651   3.711   5.048   2.383
  117LA     H1C 3652   3.780   5.041   2.396
  118ST     H00 3653   3.955   0.728   2.998
  118ST     C01 3654   3.935   0.722   3.036
  118ST     H02 3655   3.961   0.700   3.062
  118ST     H03 3656   3.926   0.761   3.053
  118ST     C04 3657   3.883   0.690   3.027
  118ST     C05 3658   3.851   0.698   2.984
  118ST     H06 3659   3.815   0.722   2.989
  118ST     H07 3660   3.866   0.693   2.945
  118ST     C08 3661   3.868   0.649   3.068
  118ST     O09 3662   3.870   0.656   3.117
  118ST     O0A 3663   3.851   0.601   3.044
  118ST     C0B 3664   3.881   0.553   3.058
  118ST     H0C 3665   3.916   0.550   3.031
  118ST     H0D 3666   3.895   0.557   3.098
  118ST     C0E 3667   3.843   0.503   3.051
  118ST     H0F 3668   3.868   0.468   3.040
  118ST     H0G 3669   3.815   0.509   3.018
  118ST     C0H 3670   3.811   0.490   3.105
  118ST     H0I 3671   3.774   0.470   3.095
  118ST     H0J 3672   3.801   0.528   3.125
  118ST     C0K 3673   3.846   0.452   3.145
  118ST     H0M 3674   3.888   0.455   3.136
  118ST     H0N 3675   3.840   0.465   3.186
  118ST     C0O 3676   3.828   0.389   3.141
  118ST     H0P 3677   3.854   0.368   3.113
  118ST     H0Q 3678   3.788   0.386   3.124
  118ST     C0R 3679   3.829   0.359   3.200
  118ST     H0S 3680   3.799   0.327   3.201
  118ST     H0T 3681   3.817   0.387   3.231
  118ST     C0U 3682   3.887   0.335   3.213
  118ST     H0V 3683   3.893   0.334   3.256
  118ST     H0W 3684   3.918   0.361   3.196
  118ST     C0X 3685   3.894   0.275   3.190
  118ST     H0Y 3686   3.859   0.264   3.167
  118ST     H0Z 3687   3.927   0.274   3.162
  118ST     C10 3688   3.903   0.232   3.236
  118ST     H11 3689   3.946   0.222   3.239
  118ST     H12 3690   3.892   0.249   3.275
  118ST     C13 3691   3.869   0.177   3.226
  118ST     H14 3692   3.843   0.170   3.260
  118ST     H15 3693   3.844   0.183   3.192
  118ST     C16 3694   3.908   0.126   3.217
  118ST     H17 3695   3.947   0.140   3.203
  118ST     H18 3696   3.914   0.105   3.255
  118ST     C19 3697   3.883   0.085   3.173
  118ST     H1A 3698   3.853   0.105   3.149
  118ST     H1B 3699   3.915   0.072   3.146
  118ST     C1C 3700   3.857   0.034   3.201
  118ST     H1D 3701   3.870   0.031   3.242
  118ST     H1E 3702   3.814   0.038   3.202
  118ST     C1F 3703   3.872  -0.020   3.171
  118ST     H1G 3704   3.840  -0.031   3.143
  118ST     H1H 3705   3.907  -0.013   3.146
  118ST     C1I 3706   3.882  -0.067   3.210
  118ST     H1J 3707   3.849  -0.095   3.208
  118ST     H1K 3708   3.884  -0.052   3.251
  118ST     C1M 3709   3.934  -0.096   3.197
  118ST     H1N 3710   3.954  -0.109   3.233
  118ST     H1O 3711   3.962  -0.069   3.176
  118ST     C1P 3712   3.924  -0.145   3.161
  118ST     H1Q 3713   3.902  -0.175   3.183
  118ST     H1R 3714   3.899  -0.134   3.127
  118ST     C1S 3715   3.976  -0.169   3.140
  118ST     H1T 3716   3.970  -0.189   3.102
  118ST     H1U 3717   3.992  -0.198   3.168
  118ST     H1V 3718   4.006  -0.138   3.135
  119EH     H00 3719   3.789   0.546   2.503
  119EH     C01 3720   3.782   0.587   2.518
  119EH     H02 3721   3.740   0.591   2.527
  119EH     H03 3722   3.805   0.591   2.555
  119EH     C04 3723   3.800   0.628   2.477
  119EH     C05 3724   3.790   0.623   2.424
  119EH     H06 3725   3.750   0.630   2.410
  119EH     H07 3726   3.816   0.600   2.399
  119EH     C08 3727   3.829   0.677   2.496
  119EH     O09 3728   3.820   0.700   2.538
  119EH     O0A 3729   3.871   0.691   2.462
  119EH     C0B 3730   3.909   0.730   2.481
  119EH     H0C 3731   3.936   0.711   2.509
  119EH     H0D 3732   3.888   0.761   2.503
  119EH     C0E 3733   3.941   0.755   2.432
  119EH     H0F 3734   3.939   0.728   2.398
  119EH     C0G 3735   3.915   0.811   2.414
  119EH     H0H 3736   3.876   0.804   2.397
  119EH     H0I 3737   3.940   0.829   2.383
  119EH     C0J 3738   3.910   0.851   2.463
  119EH     H0K 3739   3.869   0.866   2.467
  119EH     H0M 3740   3.937   0.886   2.458
  119EH     H0N 3741   3.921   0.831   2.500
  119EH     C0O 3742   4.003   0.763   2.447
  119EH     H0P 3743   4.008   0.799   2.473
  119EH     H0Q 3744   4.017   0.729   2.471
  119EH     C0R 3745   4.039   0.769   2.396
  119EH     H0S 3746   4.016   0.790   2.365
  119EH     H0T 3747   4.049   0.730   2.380
  119EH     C0U 3748   4.091   0.801   2.408
  119EH     H0V 3749   4.086   0.843   2.398
  119EH     H0W 3750   4.100   0.799   2.451
  119EH     C0X 3751   4.140   0.777   2.377
  119EH     H0Y 3752   4.177   0.800   2.384
  119EH     H0Z 3753   4.133   0.778   2.333
  119EH     H10 3754   4.148   0.736   2.388
  120EH     H00 3755   3.878   0.466   1.760
  120EH     C01 3756   3.869   0.443   1.797
  120EH     H02 3757   3.891   0.406   1.796
  120EH     H03 3758   3.882   0.467   1.831
  120EH     C04 3759   3.808   0.431   1.800
  120EH     C05 3760   3.779   0.416   1.758
  120EH     H06 3761   3.783   0.376   1.743
  120EH     H07 3762   3.763   0.446   1.731
  120EH     C08 3763   3.782   0.436   1.853
  120EH     O09 3764   3.802   0.425   1.896
  120EH     O0A 3765   3.731   0.459   1.849
  120EH     C0B 3766   3.706   0.477   1.898
  120EH     H0C 3767   3.723   0.514   1.911
  120EH     H0D 3768   3.713   0.447   1.929
  120EH     C0E 3769   3.643   0.484   1.889
  120EH     H0F 3770   3.636   0.490   1.846
  120EH     C0G 3771   3.611   0.432   1.907
  120EH     H0H 3772   3.621   0.399   1.881
  120EH     H0I 3773   3.568   0.439   1.904
  120EH     C0J 3774   3.625   0.417   1.967
  120EH     H0K 3775   3.638   0.375   1.970
  120EH     H0M 3776   3.590   0.422   1.993
  120EH     H0N 3777   3.657   0.442   1.982
  120EH     C0O 3778   3.621   0.536   1.920
  120EH     H0P 3779   3.617   0.527   1.962
  120EH     H0Q 3780   3.650   0.568   1.916
  120EH     C0R 3781   3.566   0.555   1.896
  120EH     H0S 3782   3.543   0.521   1.883
  120EH     H0T 3783   3.573   0.580   1.861
  120EH     C0U 3784   3.533   0.587   1.939
  120EH     H0V 3785   3.505   0.561   1.958
  120EH     H0W 3786   3.560   0.602   1.970
  120EH     C0X 3787   3.503   0.635   1.912
  120EH     H0Y 3788   3.479   0.657   1.942
  120EH     H0Z 3789   3.475   0.621   1.881
  120EH     H10 3790   3.530   0.664   1.894
  121LA     H00 3791   3.759   0.445   1.467
  121LA     C01 3792   3.784   0.413   1.454
  121LA     H02 3793   3.806   0.397   1.488
  121LA     H03 3794   3.760   0.382   1.437
  121LA     C04 3795   3.823   0.434   1.412
  121LA     C05 3796   3.871   0.453   1.425
  121LA     H06 3797   3.898   0.430   1.450
  121LA     H07 3798   3.879   0.495   1.422
  121LA     C08 3799   3.806   0.432   1.356
  121LA     O09 3800   3.806   0.470   1.325
  121LA     O0A 3801   3.790   0.383   1.341
  121LA     C0B 3802   3.828   0.351   1.314
  121LA     H0C 3803   3.824   0.310   1.326
  121LA     H0D 3804   3.868   0.363   1.326
  121LA     C0E 3805   3.821   0.357   1.252
  121LA     H0F 3806   3.805   0.398   1.243
  121LA     H0G 3807   3.859   0.354   1.232
  121LA     C0H 3808   3.781   0.313   1.229
  121LA     H0I 3809   3.776   0.281   1.258
  121LA     H0J 3810   3.742   0.331   1.223
  121LA     C0K 3811   3.803   0.289   1.173
  121LA     H0M 3812   3.811   0.322   1.144
  121LA     H0N 3813   3.841   0.268   1.179
  121LA     C0O 3814   3.760   0.247   1.146
  121LA     H0P 3815   3.740   0.224   1.177
  121LA     H0Q 3816   3.729   0.269   1.125
  121LA     C0R 3817   3.789   0.207   1.104
  121LA     H0S 3818   3.803   0.229   1.069
  121LA     H0T 3819   3.825   0.189   1.123
  121LA     C0U 3820   3.749   0.159   1.086
  121LA     H0V 3821   3.716   0.157   1.113
  121LA     H0W 3822   3.733   0.169   1.046
  121LA     C0X 3823   3.780   0.103   1.084
  121LA     H0Y 3824   3.822   0.109   1.089
  121LA     H0Z 3825   3.766   0.078   1.117
  121LA     C10 3826   3.769   0.073   1.029
  121LA     H11 3827   3.788   0.095   0.996
  121LA     H12 3828   3.726   0.072   1.020
  121LA     C13 3829   3.792   0.014   1.030
  121LA     H14 3830   3.760  -0.014   1.022
  121LA     H15 3831   3.808   0.005   1.069
  121LA     C16 3832   3.836   0.006   0.988
  121LA     H17 3833   3.871  -0.014   1.006
  121LA     H18 3834   3.850   0.045   0.974
  121LA     C19 3835   3.817  -0.026   0.940
  121LA     H1A 3836   3.813  -0.069   0.950
  121LA     H1B 3837   3.844  -0.023   0.906
  121LA     H1C 3838   3.777  -0.013   0.927
  122EH     H00 3839   3.835   0.788   1.431
  122EH     C01 3840   3.835   0.818   1.463
  122EH     H02 3841   3.802   0.846   1.457
  122EH     H03 3842   3.830   0.798   1.501
  122EH     C04 3843   3.889   0.849   1.463
  122EH     C05 3844   3.912   0.866   1.417
  122EH     H06 3845   3.896   0.900   1.396
  122EH     H07 3846   3.937   0.839   1.395
  122EH     C08 3847   3.915   0.861   1.515
  122EH     O09 3848   3.891   0.872   1.556
  122EH     O0A 3849   3.970   0.855   1.512
  122EH     C0B 3850   3.999   0.855   1.563
  122EH     H0C 3851   3.994   0.816   1.582
  122EH     H0D 3852   3.982   0.885   1.589
  122EH     C0E 3853   4.061   0.866   1.552
  122EH     H0F 3854   4.070   0.856   1.510
  122EH     C0G 3855   4.074   0.928   1.561
  122EH     H0H 3856   4.055   0.952   1.530
  122EH     H0I 3857   4.117   0.934   1.557
  122EH     C0J 3858   4.055   0.947   1.618
  122EH     H0K 3859   4.030   0.983   1.615
  122EH     H0M 3860   4.090   0.958   1.644
  122EH     H0N 3861   4.033   0.916   1.639
  122EH     C0O 3862   4.098   0.829   1.590
  122EH     H0P 3863   4.098   0.846   1.631
  122EH     H0Q 3864   4.080   0.789   1.593
  122EH     C0R 3865   4.156   0.825   1.568
  122EH     H0S 3866   4.168   0.863   1.549
  122EH     H0T 3867   4.158   0.794   1.538
  122EH     C0U 3868   4.197   0.812   1.614
  122EH     H0V 3869   4.215   0.849   1.628
  122EH     H0W 3870   4.176   0.794   1.647
  122EH     C0X 3871   4.242   0.773   1.594
  122EH     H0Y 3872   4.271   0.765   1.626
  122EH     H0Z 3873   4.264   0.789   1.560
  122EH     H10 3874   4.225   0.734   1.582
  123LA     H00 3875   3.668   1.189   1.000
  123LA     C01 3876   3.635   1.211   1.017
  123LA     H02 3877   3.598   1.196   0.999
  123LA     H03 3878   3.634   1.204   1.059
  123LA     C04 3879   3.640   1.270   1.005
  123LA     C05 3880   3.620   1.293   0.961
  123LA     H06 3881   3.578   1.286   0.951
  123LA     H07 3882   3.645   1.306   0.930
  123LA     C08 3883   3.670   1.303   1.044
  123LA     O09 3884   3.707   1.332   1.033
  123LA     O0A 3885   3.650   1.298   1.093
  123LA     C0B 3886   3.614   1.338   1.111
  123LA     H0C 3887   3.584   1.320   1.136
  123LA     H0D 3888   3.594   1.355   1.076
  123LA     C0E 3889   3.646   1.382   1.142
  123LA     H0F 3890   3.687   1.385   1.127
  123LA     H0G 3891   3.627   1.421   1.136
  123LA     C0H 3892   3.647   1.370   1.205
  123LA     H0I 3893   3.618   1.340   1.214
  123LA     H0J 3894   3.686   1.353   1.215
  123LA     C0K 3895   3.637   1.423   1.240
  123LA     H0M 3896   3.665   1.455   1.228
  123LA     H0N 3897   3.596   1.438   1.232
  123LA     C0O 3898   3.644   1.412   1.304
  123LA     H0P 3899   3.629   1.372   1.314
  123LA     H0Q 3900   3.686   1.412   1.315
  123LA     C0R 3901   3.612   1.456   1.340
  123LA     H0S 3902   3.632   1.494   1.336
  123LA     H0T 3903   3.572   1.461   1.325
  123LA     C0U 3904   3.610   1.439   1.402
  123LA     H0V 3905   3.620   1.396   1.406
  123LA     H0W 3906   3.641   1.461   1.424
  123LA     C0X 3907   3.553   1.451   1.428
  123LA     H0Y 3908   3.529   1.474   1.400
  123LA     H0Z 3909   3.532   1.413   1.435
  123LA     C10 3910   3.558   1.483   1.482
  123LA     H11 3911   3.574   1.523   1.474
  123LA     H12 3912   3.587   1.463   1.508
  123LA     C13 3913   3.502   1.488   1.512
  123LA     H14 3914   3.505   1.470   1.551
  123LA     H15 3915   3.472   1.465   1.490
  123LA     C16 3916   3.485   1.547   1.517
  123LA     H17 3917   3.443   1.551   1.505
  123LA     H18 3918   3.508   1.571   1.490
  123LA     C19 3919   3.491   1.567   1.575
  123LA     H1A 3920   3.460   1.551   1.600
  123LA     H1B 3921   3.489   1.610   1.576
  123LA     H1C 3922   3.530   1.555   1.591
  124LA     H00 3923   3.441   1.688   0.836
  124LA     C01 3924   3.423   1.659   0.810
  124LA     H02 3925   3.399   1.632   0.834
  124LA     H03 3926   3.397   1.680   0.782
  124LA     C04 3927   3.465   1.629   0.780
  124LA     C05 3928   3.486   1.583   0.798
  124LA     H06 3929   3.460   1.551   0.811
  124LA     H07 3930   3.526   1.583   0.813
  124LA     C08 3931   3.484   1.650   0.728
  124LA     O09 3932   3.530   1.659   0.716
  124LA     O0A 3933   3.442   1.659   0.695
  124LA     C0B 3934   3.432   1.619   0.656
  124LA     H0C 3935   3.389   1.616   0.650
  124LA     H0D 3936   3.446   1.580   0.671
  124LA     C0E 3937   3.461   1.633   0.603
  124LA     H0F 3938   3.498   1.656   0.612
  124LA     H0G 3939   3.474   1.597   0.583
  124LA     C0H 3940   3.424   1.667   0.564
  124LA     H0I 3941   3.383   1.664   0.577
  124LA     H0J 3942   3.435   1.709   0.566
  124LA     C0K 3943   3.429   1.647   0.502
  124LA     H0M 3944   3.471   1.647   0.490
  124LA     H0N 3945   3.415   1.605   0.499
  124LA     C0O 3946   3.394   1.685   0.461
  124LA     H0P 3947   3.357   1.698   0.481
  124LA     H0Q 3948   3.417   1.721   0.452
  124LA     C0R 3949   3.380   1.654   0.406
  124LA     H0S 3950   3.416   1.647   0.383
  124LA     H0T 3951   3.363   1.614   0.416
  124LA     C0U 3952   3.338   1.687   0.371
  124LA     H0V 3953   3.318   1.717   0.395
  124LA     H0W 3954   3.359   1.708   0.339
  124LA     C0X 3955   3.294   1.648   0.345
  124LA     H0Y 3956   3.305   1.607   0.352
  124LA     H0Z 3957   3.255   1.655   0.365
  124LA     C10 3958   3.287   1.659   0.283
  124LA     H11 3959   3.324   1.647   0.262
  124LA     H12 3960   3.282   1.702   0.275
  124LA     C13 3961   3.238   1.627   0.259
  124LA     H14 3962   3.210   1.655   0.241
  124LA     H15 3963   3.217   1.607   0.290
  124LA     C16 3964   3.256   1.586   0.216
  124LA     H17 3965   3.237   1.548   0.224
  124LA     H18 3966   3.299   1.580   0.220
  124LA     C19 3967   3.243   1.605   0.160
  124LA     H1A 3968   3.200   1.600   0.152
  124LA     H1B 3969   3.265   1.582   0.130
  124LA     H1C 3970   3.253   1.647   0.154
  125EH     H00 3971   3.636   1.261   4.652
  125EH     C01 3972   3.602   1.282   4.669
  125EH     H02 3973   3.580   1.303   4.636
  125EH     H03 3974   3.575   1.253   4.687
  125EH     C04 3975   3.620   1.323   4.711
  125EH     C05 3976   3.663   1.355   4.704
  125EH     H06 3977   3.660   1.389   4.677
  125EH     H07 3978   3.702   1.341   4.714
  125EH     C08 3979   3.588   1.328   4.761
  125EH     O09 3980   3.540   1.324   4.764
  125EH     O0A 3981   3.621   1.335   4.806
  125EH     C0B 3982   3.596   1.329   4.858
  125EH     H0C 3983   3.590   1.287   4.866
  125EH     H0D 3984   3.556   1.348   4.857
  125EH     C0E 3985   3.633   1.356   4.903
  125EH     H0F 3986   3.674   1.358   4.887
  125EH     C0G 3987   3.612   1.415   4.916
  125EH     H0H 3988   3.619   1.441   4.881
  125EH     H0I 3989   3.636   1.431   4.949
  125EH     C0J 3990   3.551   1.416   4.931
  125EH     H0K 3991   3.529   1.444   4.906
  125EH     H0M 3992   3.545   1.427   4.973
  125EH     H0N 3993   3.533   1.377   4.925
  125EH     C0O 3994   3.633   1.320   4.956
  125EH     H0P 3995   3.596   1.326   4.978
  125EH     H0Q 3996   3.635   1.277   4.945
  125EH     C0R 3997   3.682   1.334   4.993
  125EH     H0S 3998   3.691   1.377   4.989
  125EH     H0T 3999   3.717   1.313   4.979
  125EH     C0U 4000   3.671   1.320   5.052
  125EH     H0V 4001   3.658   1.355   5.073
  125EH     H0W 4002   3.639   1.290   5.054
  125EH     C0X 4003   3.723   1.297   5.080
  125EH     H0Y 4004   3.715   1.288   5.123
  125EH     H0Z 4005   3.756   1.326   5.078
  125EH     H10 4006   3.736   1.260   5.061
  126ST     H00 4007   4.090   0.701   0.612
  126ST     C01 4008   4.058   0.715   0.586
  126ST     H02 4009   4.052   0.687   0.554
  126ST     H03 4010   4.021   0.717   0.610
  126ST     C04 4011   4.071   0.770   0.564
  126ST     C05 4012   4.096   0.808   0.593
  126ST     H06 4013   4.073   0.841   0.611
  126ST     H07 4014   4.134   0.801   0.610
  126ST     C08 4015   4.055   0.783   0.508
  126ST     O09 4016   4.012   0.772   0.487
  126ST     O0A 4017   4.097   0.808   0.480
  126ST     C0B 4018   4.116   0.781   0.432
  126ST     H0C 4019   4.146   0.751   0.443
  126ST     H0D 4020   4.084   0.760   0.413
  126ST     C0E 4021   4.140   0.824   0.392
  126ST     H0F 4022   4.173   0.805   0.368
  126ST     H0G 4023   4.159   0.856   0.415
  126ST     C0H 4024   4.096   0.848   0.353
  126ST     H0I 4025   4.107   0.888   0.341
  126ST     H0J 4026   4.058   0.851   0.374
  126ST     C0K 4027   4.089   0.811   0.299
  126ST     H0M 4028   4.103   0.770   0.307
  126ST     H0N 4029   4.047   0.808   0.289
  126ST     C0O 4030   4.122   0.835   0.248
  126ST     H0P 4031   4.161   0.816   0.244
  126ST     H0Q 4032   4.129   0.878   0.254
  126ST     C0R 4033   4.088   0.827   0.191
  126ST     H0S 4034   4.098   0.860   0.163
  126ST     H0T 4035   4.045   0.831   0.199
  126ST     C0U 4036   4.101   0.770   0.164
  126ST     H0V 4037   4.067   0.757   0.141
  126ST     H0W 4038   4.107   0.740   0.195
  126ST     C0X 4039   4.153   0.774   0.126
  126ST     H0Y 4040   4.170   0.813   0.128
  126ST     H0Z 4041   4.183   0.746   0.139
  126ST     C10 4042   4.138   0.761   0.064
  126ST     H11 4043   4.149   0.720   0.055
  126ST     H12 4044   4.095   0.763   0.058
  126ST     C13 4045   4.168   0.801   0.023
  126ST     H14 4046   4.139   0.822  -0.001
  126ST     H15 4047   4.189   0.832   0.046
  126ST     C16 4048   4.210   0.770  -0.015
  126ST     H17 4049   4.222   0.732   0.004
  126ST     H18 4050   4.190   0.760  -0.053
  126ST     C19 4051   4.263   0.806  -0.027
  126ST     H1A 4052   4.267   0.837   0.002
  126ST     H1B 4053   4.299   0.781  -0.024
  126ST     C1C 4054   4.261   0.832  -0.086
  126ST     H1D 4055   4.231   0.812  -0.110
  126ST     H1E 4056   4.249   0.873  -0.083
  126ST     C1F 4057   4.317   0.828  -0.115
  126ST     H1G 4058   4.339   0.865  -0.110
  126ST     H1H 4059   4.341   0.796  -0.096
  126ST     C1I 4060   4.311   0.816  -0.176
  126ST     H1J 4061   4.320   0.851  -0.199
  126ST     H1K 4062   4.269   0.805  -0.184
  126ST     C1M 4063   4.347   0.770  -0.193
  126ST     H1N 4064   4.327   0.746  -0.223
  126ST     H1O 4065   4.355   0.743  -0.159
  126ST     C1P 4066   4.400   0.790  -0.216
  126ST     H1Q 4067   4.392   0.811  -0.253
  126ST     H1R 4068   4.417   0.820  -0.189
  126ST     C1S 4069   4.440   0.745  -0.225
  126ST     H1T 4070   4.481   0.759  -0.222
  126ST     H1U 4071   4.435   0.728  -0.265
  126ST     H1V 4072   4.434   0.713  -0.196
  127LA     H00 4073   3.412   0.471   0.407
  127LA     C01 4074   3.421   0.429   0.410
  127LA     H02 4075   3.413   0.415   0.450
  127LA     H03 4076   3.396   0.407   0.382
  127LA     C04 4077   3.479   0.420   0.396
  127LA     C05 4078   3.518   0.419   0.433
  127LA     H06 4079   3.514   0.395   0.469
  127LA     H07 4080   3.545   0.452   0.435
  127LA     C08 4081   3.493   0.410   0.340
  127LA     O09 4082   3.527   0.435   0.315
  127LA     O0A 4083   3.465   0.370   0.319
  127LA     C0B 4084   3.490   0.319   0.317
  127LA     H0C 4085   3.460   0.288   0.323
  127LA     H0D 4086   3.519   0.316   0.348
  127LA     C0E 4087   3.517   0.312   0.261
  127LA     H0F 4088   3.529   0.351   0.245
  127LA     H0G 4089   3.553   0.288   0.265
  127LA     C0H 4090   3.478   0.284   0.219
  127LA     H0I 4091   3.444   0.266   0.240
  127LA     H0J 4092   3.461   0.314   0.192
  127LA     C0K 4093   3.508   0.238   0.184
  127LA     H0M 4094   3.544   0.256   0.165
  127LA     H0N 4095   3.523   0.206   0.210
  127LA     C0O 4096   3.469   0.213   0.137
  127LA     H0P 4097   3.429   0.210   0.153
  127LA     H0Q 4098   3.468   0.240   0.103
  127LA     C0R 4099   3.490   0.155   0.118
  127LA     H0S 4100   3.528   0.159   0.097
  127LA     H0T 4101   3.499   0.130   0.153
  127LA     C0U 4102   3.447   0.125   0.081
  127LA     H0V 4103   3.408   0.144   0.085
  127LA     H0W 4104   3.459   0.130   0.039
  127LA     C0X 4105   3.442   0.063   0.095
  127LA     H0Y 4106   3.473   0.052   0.123
  127LA     H0Z 4107   3.404   0.055   0.115
  127LA     C10 4108   3.446   0.027   0.043
  127LA     H11 4109   3.487   0.030   0.027
  127LA     H12 4110   3.419   0.042   0.013
  127LA     C13 4111   3.433  -0.034   0.056
  127LA     H14 4112   3.399  -0.047   0.032
  127LA     H15 4113   3.421  -0.038   0.097
  127LA     C16 4114   3.482  -0.070   0.045
  127LA     H17 4115   3.488  -0.097   0.079
  127LA     H18 4116   3.518  -0.046   0.041
  127LA     C19 4117   3.474  -0.103  -0.006
  127LA     H1A 4118   3.446  -0.136   0.000
  127LA     H1B 4119   3.512  -0.120  -0.019
  127LA     H1C 4120   3.458  -0.078  -0.038
  128ST     H00 4121   3.414   4.104   4.646
  128ST     C01 4122   3.424   4.147   4.647
  128ST     H02 4123   3.450   4.153   4.681
  128ST     H03 4124   3.445   4.157   4.610
  128ST     C04 4125   3.373   4.180   4.652
  128ST     C05 4126   3.327   4.168   4.626
  128ST     H06 4127   3.317   4.189   4.589
  128ST     H07 4128   3.309   4.130   4.631
  128ST     C08 4129   3.374   4.228   4.688
  128ST     O09 4130   3.410   4.262   4.689
  128ST     O0A 4131   3.329   4.231   4.720
  128ST     C0B 4132   3.338   4.232   4.777
  128ST     H0C 4133   3.341   4.190   4.792
  128ST     H0D 4134   3.374   4.252   4.786
  128ST     C0E 4135   3.289   4.262   4.806
  128ST     H0F 4136   3.283   4.245   4.846
  128ST     H0G 4137   3.252   4.254   4.784
  128ST     C0H 4138   3.300   4.324   4.810
  128ST     H0I 4139   3.262   4.345   4.810
  128ST     H0J 4140   3.321   4.338   4.775
  128ST     C0K 4141   3.333   4.340   4.864
  128ST     H0M 4142   3.356   4.305   4.878
  128ST     H0N 4143   3.363   4.370   4.855
  128ST     C0O 4144   3.294   4.361   4.913
  128ST     H0P 4145   3.284   4.328   4.939
  128ST     H0Q 4146   3.257   4.375   4.896
  128ST     C0R 4147   3.322   4.410   4.947
  128ST     H0S 4148   3.291   4.436   4.963
  128ST     H0T 4149   3.347   4.434   4.921
  128ST     C0U 4150   3.358   4.387   4.996
  128ST     H0V 4151   3.391   4.415   5.004
  128ST     H0W 4152   3.377   4.350   4.983
  128ST     C0X 4153   3.323   4.378   5.049
  128ST     H0Y 4154   3.282   4.386   5.040
  128ST     H0Z 4155   3.326   4.336   5.060
  128ST     C10 4156   3.343   4.415   5.098
  128ST     H11 4157   3.368   4.391   5.125
  128ST     H12 4158   3.369   4.447   5.082
  128ST     C13 4159   3.293   4.440   5.130
  128ST     H14 4160   3.296   4.484   5.130
  128ST     H15 4161   3.256   4.430   5.110
  128ST     C16 4162   3.291   4.419   5.192
  128ST     H17 4163   3.313   4.381   5.194
  128ST     H18 4164   3.312   4.447   5.218
  128ST     C19 4165   3.230   4.411   5.212
  128ST     H1A 4166   3.203   4.409   5.178
  128ST     H1B 4167   3.227   4.373   5.234
  128ST     C1C 4168   3.212   4.459   5.251
  128ST     H1D 4169   3.247   4.481   5.264
  128ST     H1E 4170   3.187   4.487   5.228
  128ST     C1F 4171   3.180   4.438   5.301
  128ST     H1G 4172   3.137   4.441   5.293
  128ST     H1H 4173   3.189   4.396   5.307
  128ST     C1I 4174   3.194   4.470   5.352
  128ST     H1J 4175   3.161   4.496   5.363
  128ST     H1K 4176   3.228   4.496   5.345
  128ST     C1M 4177   3.206   4.433   5.399
  128ST     H1N 4178   3.238   4.450   5.423
  128ST     H1O 4179   3.221   4.394   5.384
  128ST     C1P 4180   3.157   4.423   5.434
  128ST     H1Q 4181   3.146   4.460   5.454
  128ST     H1R 4182   3.123   4.412   5.409
  128ST     C1S 4183   3.167   4.379   5.475
  128ST     H1T 4184   3.130   4.359   5.486
  128ST     H1U 4185   3.184   4.395   5.512
  128ST     H1V 4186   3.194   4.349   5.460
  129CH3n    C1 4187   3.507   4.401   0.638
  129CH3n    H2 4188   3.501   4.361   0.622
  129CH3n    H3 4189   3.483   4.429   0.615
  129CH3n    H4 4190   3.549   4.412   0.631
5.05896 5.05896 5.05896
