; /home/jotelha/ws/2025-12-01-pama-aa/venv/bin/polyply gen_params -lib oplsaaLigParGen -o molecule.itp -name PAMA_BLOCK -seqf sequence.json

; Please cite the following papers:
; Kroon, P C; Grunewald, F; Barnoud, J; van Tilburg, M; Souza, P C; Wassenaar, T A; Marrink, S J;  elife 2024; 10.7554/elife.90627.2

[ moleculetype ]
PAMA_BLOCK 3

[ atoms ]
   1 opls_135    1 CH3n C1    1   -0.279225 12.011
   2 opls_140    1 CH3n H2    2    0.093075  1.008
   3 opls_140    1 CH3n H3    3    0.093075  1.008
   4 opls_140    1 CH3n H4    4    0.093075  1.008
   5 opls_1084   2 MMA  H00   5  0.10399334  1.008
   6 opls_1085   2 MMA  C01   5 -0.04410666 12.011
   7 opls_1086   2 MMA  H02   5  0.10399334  1.008
   8 opls_1087   2 MMA  H03   5  0.10399334  1.008
   9 opls_1088   2 MMA  O04   5 -0.36630666 15.999
  10 opls_1089   2 MMA  C05   5  0.47199333 12.011
  11 opls_1090   2 MMA  O06   5 -0.45700667 15.999
  12 opls_1091   2 MMA  C07   5 -0.15540667 12.011
  13 opls_1092   2 MMA  C08   5 -0.16680667 12.011
  14 opls_1093   2 MMA  H09   5  0.14549333  1.008
  15 opls_1094   2 MMA  H0A   5  0.14549333  1.008
  16 opls_1095   2 MMA  C0B   5 -0.19220667 12.011
  17 opls_1096   2 MMA  H0C   5  0.10229333  1.008
  18 opls_1097   2 MMA  H0D   5  0.10229333  1.008
  19 opls_1098   2 MMA  H0E   5  0.10229333  1.008
  20 opls_1084   3 MMA  H00   6  0.10399334  1.008
  21 opls_1085   3 MMA  C01   6 -0.04410666 12.011
  22 opls_1086   3 MMA  H02   6  0.10399334  1.008
  23 opls_1087   3 MMA  H03   6  0.10399334  1.008
  24 opls_1088   3 MMA  O04   6 -0.36630666 15.999
  25 opls_1089   3 MMA  C05   6  0.47199333 12.011
  26 opls_1090   3 MMA  O06   6 -0.45700667 15.999
  27 opls_1091   3 MMA  C07   6 -0.15540667 12.011
  28 opls_1092   3 MMA  C08   6 -0.16680667 12.011
  29 opls_1093   3 MMA  H09   6  0.14549333  1.008
  30 opls_1094   3 MMA  H0A   6  0.14549333  1.008
  31 opls_1095   3 MMA  C0B   6 -0.19220667 12.011
  32 opls_1096   3 MMA  H0C   6  0.10229333  1.008
  33 opls_1097   3 MMA  H0D   6  0.10229333  1.008
  34 opls_1098   3 MMA  H0E   6  0.10229333  1.008
  35 opls_1084   4 MMA  H00   7  0.10399334  1.008
  36 opls_1085   4 MMA  C01   7 -0.04410666 12.011
  37 opls_1086   4 MMA  H02   7  0.10399334  1.008
  38 opls_1087   4 MMA  H03   7  0.10399334  1.008
  39 opls_1088   4 MMA  O04   7 -0.36630666 15.999
  40 opls_1089   4 MMA  C05   7  0.47199333 12.011
  41 opls_1090   4 MMA  O06   7 -0.45700667 15.999
  42 opls_1091   4 MMA  C07   7 -0.15540667 12.011
  43 opls_1092   4 MMA  C08   7 -0.16680667 12.011
  44 opls_1093   4 MMA  H09   7  0.14549333  1.008
  45 opls_1094   4 MMA  H0A   7  0.14549333  1.008
  46 opls_1095   4 MMA  C0B   7 -0.19220667 12.011
  47 opls_1096   4 MMA  H0C   7  0.10229333  1.008
  48 opls_1097   4 MMA  H0D   7  0.10229333  1.008
  49 opls_1098   4 MMA  H0E   7  0.10229333  1.008
  50 opls_1084   5 MMA  H00   8  0.10399334  1.008
  51 opls_1085   5 MMA  C01   8 -0.04410666 12.011
  52 opls_1086   5 MMA  H02   8  0.10399334  1.008
  53 opls_1087   5 MMA  H03   8  0.10399334  1.008
  54 opls_1088   5 MMA  O04   8 -0.36630666 15.999
  55 opls_1089   5 MMA  C05   8  0.47199333 12.011
  56 opls_1090   5 MMA  O06   8 -0.45700667 15.999
  57 opls_1091   5 MMA  C07   8 -0.15540667 12.011
  58 opls_1092   5 MMA  C08   8 -0.16680667 12.011
  59 opls_1093   5 MMA  H09   8  0.14549333  1.008
  60 opls_1094   5 MMA  H0A   8  0.14549333  1.008
  61 opls_1095   5 MMA  C0B   8 -0.19220667 12.011
  62 opls_1096   5 MMA  H0C   8  0.10229333  1.008
  63 opls_1097   5 MMA  H0D   8  0.10229333  1.008
  64 opls_1098   5 MMA  H0E   8  0.10229333  1.008
  65 opls_1084   6 MMA  H00   9  0.10399334  1.008
  66 opls_1085   6 MMA  C01   9 -0.04410666 12.011
  67 opls_1086   6 MMA  H02   9  0.10399334  1.008
  68 opls_1087   6 MMA  H03   9  0.10399334  1.008
  69 opls_1088   6 MMA  O04   9 -0.36630666 15.999
  70 opls_1089   6 MMA  C05   9  0.47199333 12.011
  71 opls_1090   6 MMA  O06   9 -0.45700667 15.999
  72 opls_1091   6 MMA  C07   9 -0.15540667 12.011
  73 opls_1092   6 MMA  C08   9 -0.16680667 12.011
  74 opls_1093   6 MMA  H09   9  0.14549333  1.008
  75 opls_1094   6 MMA  H0A   9  0.14549333  1.008
  76 opls_1095   6 MMA  C0B   9 -0.19220667 12.011
  77 opls_1096   6 MMA  H0C   9  0.10229333  1.008
  78 opls_1097   6 MMA  H0D   9  0.10229333  1.008
  79 opls_1098   6 MMA  H0E   9  0.10229333  1.008
  80 opls_1084   7 MMA  H00  10  0.10399334  1.008
  81 opls_1085   7 MMA  C01  10 -0.04410666 12.011
  82 opls_1086   7 MMA  H02  10  0.10399334  1.008
  83 opls_1087   7 MMA  H03  10  0.10399334  1.008
  84 opls_1088   7 MMA  O04  10 -0.36630666 15.999
  85 opls_1089   7 MMA  C05  10  0.47199333 12.011
  86 opls_1090   7 MMA  O06  10 -0.45700667 15.999
  87 opls_1091   7 MMA  C07  10 -0.15540667 12.011
  88 opls_1092   7 MMA  C08  10 -0.16680667 12.011
  89 opls_1093   7 MMA  H09  10  0.14549333  1.008
  90 opls_1094   7 MMA  H0A  10  0.14549333  1.008
  91 opls_1095   7 MMA  C0B  10 -0.19220667 12.011
  92 opls_1096   7 MMA  H0C  10  0.10229333  1.008
  93 opls_1097   7 MMA  H0D  10  0.10229333  1.008
  94 opls_1098   7 MMA  H0E  10  0.10229333  1.008
  95 opls_1084   8 MMA  H00  11  0.10399334  1.008
  96 opls_1085   8 MMA  C01  11 -0.04410666 12.011
  97 opls_1086   8 MMA  H02  11  0.10399334  1.008
  98 opls_1087   8 MMA  H03  11  0.10399334  1.008
  99 opls_1088   8 MMA  O04  11 -0.36630666 15.999
 100 opls_1089   8 MMA  C05  11  0.47199333 12.011
 101 opls_1090   8 MMA  O06  11 -0.45700667 15.999
 102 opls_1091   8 MMA  C07  11 -0.15540667 12.011
 103 opls_1092   8 MMA  C08  11 -0.16680667 12.011
 104 opls_1093   8 MMA  H09  11  0.14549333  1.008
 105 opls_1094   8 MMA  H0A  11  0.14549333  1.008
 106 opls_1095   8 MMA  C0B  11 -0.19220667 12.011
 107 opls_1096   8 MMA  H0C  11  0.10229333  1.008
 108 opls_1097   8 MMA  H0D  11  0.10229333  1.008
 109 opls_1098   8 MMA  H0E  11  0.10229333  1.008
 110 opls_1084   9 MMA  H00  12  0.10399334  1.008
 111 opls_1085   9 MMA  C01  12 -0.04410666 12.011
 112 opls_1086   9 MMA  H02  12  0.10399334  1.008
 113 opls_1087   9 MMA  H03  12  0.10399334  1.008
 114 opls_1088   9 MMA  O04  12 -0.36630666 15.999
 115 opls_1089   9 MMA  C05  12  0.47199333 12.011
 116 opls_1090   9 MMA  O06  12 -0.45700667 15.999
 117 opls_1091   9 MMA  C07  12 -0.15540667 12.011
 118 opls_1092   9 MMA  C08  12 -0.16680667 12.011
 119 opls_1093   9 MMA  H09  12  0.14549333  1.008
 120 opls_1094   9 MMA  H0A  12  0.14549333  1.008
 121 opls_1095   9 MMA  C0B  12 -0.19220667 12.011
 122 opls_1096   9 MMA  H0C  12  0.10229333  1.008
 123 opls_1097   9 MMA  H0D  12  0.10229333  1.008
 124 opls_1098   9 MMA  H0E  12  0.10229333  1.008
 125 opls_1084  10 MMA  H00  13  0.10399334  1.008
 126 opls_1085  10 MMA  C01  13 -0.04410666 12.011
 127 opls_1086  10 MMA  H02  13  0.10399334  1.008
 128 opls_1087  10 MMA  H03  13  0.10399334  1.008
 129 opls_1088  10 MMA  O04  13 -0.36630666 15.999
 130 opls_1089  10 MMA  C05  13  0.47199333 12.011
 131 opls_1090  10 MMA  O06  13 -0.45700667 15.999
 132 opls_1091  10 MMA  C07  13 -0.15540667 12.011
 133 opls_1092  10 MMA  C08  13 -0.16680667 12.011
 134 opls_1093  10 MMA  H09  13  0.14549333  1.008
 135 opls_1094  10 MMA  H0A  13  0.14549333  1.008
 136 opls_1095  10 MMA  C0B  13 -0.19220667 12.011
 137 opls_1096  10 MMA  H0C  13  0.10229333  1.008
 138 opls_1097  10 MMA  H0D  13  0.10229333  1.008
 139 opls_1098  10 MMA  H0E  13  0.10229333  1.008
 140 opls_1084  11 MMA  H00  14  0.10399334  1.008
 141 opls_1085  11 MMA  C01  14 -0.04410666 12.011
 142 opls_1086  11 MMA  H02  14  0.10399334  1.008
 143 opls_1087  11 MMA  H03  14  0.10399334  1.008
 144 opls_1088  11 MMA  O04  14 -0.36630666 15.999
 145 opls_1089  11 MMA  C05  14  0.47199333 12.011
 146 opls_1090  11 MMA  O06  14 -0.45700667 15.999
 147 opls_1091  11 MMA  C07  14 -0.15540667 12.011
 148 opls_1092  11 MMA  C08  14 -0.16680667 12.011
 149 opls_1093  11 MMA  H09  14  0.14549333  1.008
 150 opls_1094  11 MMA  H0A  14  0.14549333  1.008
 151 opls_1095  11 MMA  C0B  14 -0.19220667 12.011
 152 opls_1096  11 MMA  H0C  14  0.10229333  1.008
 153 opls_1097  11 MMA  H0D  14  0.10229333  1.008
 154 opls_1098  11 MMA  H0E  14  0.10229333  1.008
 155 opls_1084  12 MMA  H00  15  0.10399334  1.008
 156 opls_1085  12 MMA  C01  15 -0.04410666 12.011
 157 opls_1086  12 MMA  H02  15  0.10399334  1.008
 158 opls_1087  12 MMA  H03  15  0.10399334  1.008
 159 opls_1088  12 MMA  O04  15 -0.36630666 15.999
 160 opls_1089  12 MMA  C05  15  0.47199333 12.011
 161 opls_1090  12 MMA  O06  15 -0.45700667 15.999
 162 opls_1091  12 MMA  C07  15 -0.15540667 12.011
 163 opls_1092  12 MMA  C08  15 -0.16680667 12.011
 164 opls_1093  12 MMA  H09  15  0.14549333  1.008
 165 opls_1094  12 MMA  H0A  15  0.14549333  1.008
 166 opls_1095  12 MMA  C0B  15 -0.19220667 12.011
 167 opls_1096  12 MMA  H0C  15  0.10229333  1.008
 168 opls_1097  12 MMA  H0D  15  0.10229333  1.008
 169 opls_1098  12 MMA  H0E  15  0.10229333  1.008
 170 opls_1084  13 MMA  H00  16  0.10399334  1.008
 171 opls_1085  13 MMA  C01  16 -0.04410666 12.011
 172 opls_1086  13 MMA  H02  16  0.10399334  1.008
 173 opls_1087  13 MMA  H03  16  0.10399334  1.008
 174 opls_1088  13 MMA  O04  16 -0.36630666 15.999
 175 opls_1089  13 MMA  C05  16  0.47199333 12.011
 176 opls_1090  13 MMA  O06  16 -0.45700667 15.999
 177 opls_1091  13 MMA  C07  16 -0.15540667 12.011
 178 opls_1092  13 MMA  C08  16 -0.16680667 12.011
 179 opls_1093  13 MMA  H09  16  0.14549333  1.008
 180 opls_1094  13 MMA  H0A  16  0.14549333  1.008
 181 opls_1095  13 MMA  C0B  16 -0.19220667 12.011
 182 opls_1096  13 MMA  H0C  16  0.10229333  1.008
 183 opls_1097  13 MMA  H0D  16  0.10229333  1.008
 184 opls_1098  13 MMA  H0E  16  0.10229333  1.008
 185 opls_1084  14 MMA  H00  17  0.10399334  1.008
 186 opls_1085  14 MMA  C01  17 -0.04410666 12.011
 187 opls_1086  14 MMA  H02  17  0.10399334  1.008
 188 opls_1087  14 MMA  H03  17  0.10399334  1.008
 189 opls_1088  14 MMA  O04  17 -0.36630666 15.999
 190 opls_1089  14 MMA  C05  17  0.47199333 12.011
 191 opls_1090  14 MMA  O06  17 -0.45700667 15.999
 192 opls_1091  14 MMA  C07  17 -0.15540667 12.011
 193 opls_1092  14 MMA  C08  17 -0.16680667 12.011
 194 opls_1093  14 MMA  H09  17  0.14549333  1.008
 195 opls_1094  14 MMA  H0A  17  0.14549333  1.008
 196 opls_1095  14 MMA  C0B  17 -0.19220667 12.011
 197 opls_1096  14 MMA  H0C  17  0.10229333  1.008
 198 opls_1097  14 MMA  H0D  17  0.10229333  1.008
 199 opls_1098  14 MMA  H0E  17  0.10229333  1.008
 200 opls_1084  15 MMA  H00  18  0.10399334  1.008
 201 opls_1085  15 MMA  C01  18 -0.04410666 12.011
 202 opls_1086  15 MMA  H02  18  0.10399334  1.008
 203 opls_1087  15 MMA  H03  18  0.10399334  1.008
 204 opls_1088  15 MMA  O04  18 -0.36630666 15.999
 205 opls_1089  15 MMA  C05  18  0.47199333 12.011
 206 opls_1090  15 MMA  O06  18 -0.45700667 15.999
 207 opls_1091  15 MMA  C07  18 -0.15540667 12.011
 208 opls_1092  15 MMA  C08  18 -0.16680667 12.011
 209 opls_1093  15 MMA  H09  18  0.14549333  1.008
 210 opls_1094  15 MMA  H0A  18  0.14549333  1.008
 211 opls_1095  15 MMA  C0B  18 -0.19220667 12.011
 212 opls_1096  15 MMA  H0C  18  0.10229333  1.008
 213 opls_1097  15 MMA  H0D  18  0.10229333  1.008
 214 opls_1098  15 MMA  H0E  18  0.10229333  1.008
 215 opls_1084  16 MMA  H00  19  0.10399334  1.008
 216 opls_1085  16 MMA  C01  19 -0.04410666 12.011
 217 opls_1086  16 MMA  H02  19  0.10399334  1.008
 218 opls_1087  16 MMA  H03  19  0.10399334  1.008
 219 opls_1088  16 MMA  O04  19 -0.36630666 15.999
 220 opls_1089  16 MMA  C05  19  0.47199333 12.011
 221 opls_1090  16 MMA  O06  19 -0.45700667 15.999
 222 opls_1091  16 MMA  C07  19 -0.15540667 12.011
 223 opls_1092  16 MMA  C08  19 -0.16680667 12.011
 224 opls_1093  16 MMA  H09  19  0.14549333  1.008
 225 opls_1094  16 MMA  H0A  19  0.14549333  1.008
 226 opls_1095  16 MMA  C0B  19 -0.19220667 12.011
 227 opls_1096  16 MMA  H0C  19  0.10229333  1.008
 228 opls_1097  16 MMA  H0D  19  0.10229333  1.008
 229 opls_1098  16 MMA  H0E  19  0.10229333  1.008
 230 opls_1084  17 MMA  H00  20  0.10399334  1.008
 231 opls_1085  17 MMA  C01  20 -0.04410666 12.011
 232 opls_1086  17 MMA  H02  20  0.10399334  1.008
 233 opls_1087  17 MMA  H03  20  0.10399334  1.008
 234 opls_1088  17 MMA  O04  20 -0.36630666 15.999
 235 opls_1089  17 MMA  C05  20  0.47199333 12.011
 236 opls_1090  17 MMA  O06  20 -0.45700667 15.999
 237 opls_1091  17 MMA  C07  20 -0.15540667 12.011
 238 opls_1092  17 MMA  C08  20 -0.16680667 12.011
 239 opls_1093  17 MMA  H09  20  0.14549333  1.008
 240 opls_1094  17 MMA  H0A  20  0.14549333  1.008
 241 opls_1095  17 MMA  C0B  20 -0.19220667 12.011
 242 opls_1096  17 MMA  H0C  20  0.10229333  1.008
 243 opls_1097  17 MMA  H0D  20  0.10229333  1.008
 244 opls_1098  17 MMA  H0E  20  0.10229333  1.008
 245 opls_1084  18 MMA  H00  21  0.10399334  1.008
 246 opls_1085  18 MMA  C01  21 -0.04410666 12.011
 247 opls_1086  18 MMA  H02  21  0.10399334  1.008
 248 opls_1087  18 MMA  H03  21  0.10399334  1.008
 249 opls_1088  18 MMA  O04  21 -0.36630666 15.999
 250 opls_1089  18 MMA  C05  21  0.47199333 12.011
 251 opls_1090  18 MMA  O06  21 -0.45700667 15.999
 252 opls_1091  18 MMA  C07  21 -0.15540667 12.011
 253 opls_1092  18 MMA  C08  21 -0.16680667 12.011
 254 opls_1093  18 MMA  H09  21  0.14549333  1.008
 255 opls_1094  18 MMA  H0A  21  0.14549333  1.008
 256 opls_1095  18 MMA  C0B  21 -0.19220667 12.011
 257 opls_1096  18 MMA  H0C  21  0.10229333  1.008
 258 opls_1097  18 MMA  H0D  21  0.10229333  1.008
 259 opls_1098  18 MMA  H0E  21  0.10229333  1.008
 260 opls_1084  19 MMA  H00  22  0.10399334  1.008
 261 opls_1085  19 MMA  C01  22 -0.04410666 12.011
 262 opls_1086  19 MMA  H02  22  0.10399334  1.008
 263 opls_1087  19 MMA  H03  22  0.10399334  1.008
 264 opls_1088  19 MMA  O04  22 -0.36630666 15.999
 265 opls_1089  19 MMA  C05  22  0.47199333 12.011
 266 opls_1090  19 MMA  O06  22 -0.45700667 15.999
 267 opls_1091  19 MMA  C07  22 -0.15540667 12.011
 268 opls_1092  19 MMA  C08  22 -0.16680667 12.011
 269 opls_1093  19 MMA  H09  22  0.14549333  1.008
 270 opls_1094  19 MMA  H0A  22  0.14549333  1.008
 271 opls_1095  19 MMA  C0B  22 -0.19220667 12.011
 272 opls_1096  19 MMA  H0C  22  0.10229333  1.008
 273 opls_1097  19 MMA  H0D  22  0.10229333  1.008
 274 opls_1098  19 MMA  H0E  22  0.10229333  1.008
 275 opls_1084  20 MMA  H00  23  0.10399334  1.008
 276 opls_1085  20 MMA  C01  23 -0.04410666 12.011
 277 opls_1086  20 MMA  H02  23  0.10399334  1.008
 278 opls_1087  20 MMA  H03  23  0.10399334  1.008
 279 opls_1088  20 MMA  O04  23 -0.36630666 15.999
 280 opls_1089  20 MMA  C05  23  0.47199333 12.011
 281 opls_1090  20 MMA  O06  23 -0.45700667 15.999
 282 opls_1091  20 MMA  C07  23 -0.15540667 12.011
 283 opls_1092  20 MMA  C08  23 -0.16680667 12.011
 284 opls_1093  20 MMA  H09  23  0.14549333  1.008
 285 opls_1094  20 MMA  H0A  23  0.14549333  1.008
 286 opls_1095  20 MMA  C0B  23 -0.19220667 12.011
 287 opls_1096  20 MMA  H0C  23  0.10229333  1.008
 288 opls_1097  20 MMA  H0D  23  0.10229333  1.008
 289 opls_1098  20 MMA  H0E  23  0.10229333  1.008
 290 opls_1084  21 MMA  H00  24  0.10399334  1.008
 291 opls_1085  21 MMA  C01  24 -0.04410666 12.011
 292 opls_1086  21 MMA  H02  24  0.10399334  1.008
 293 opls_1087  21 MMA  H03  24  0.10399334  1.008
 294 opls_1088  21 MMA  O04  24 -0.36630666 15.999
 295 opls_1089  21 MMA  C05  24  0.47199333 12.011
 296 opls_1090  21 MMA  O06  24 -0.45700667 15.999
 297 opls_1091  21 MMA  C07  24 -0.15540667 12.011
 298 opls_1092  21 MMA  C08  24 -0.16680667 12.011
 299 opls_1093  21 MMA  H09  24  0.14549333  1.008
 300 opls_1094  21 MMA  H0A  24  0.14549333  1.008
 301 opls_1095  21 MMA  C0B  24 -0.19220667 12.011
 302 opls_1096  21 MMA  H0C  24  0.10229333  1.008
 303 opls_1097  21 MMA  H0D  24  0.10229333  1.008
 304 opls_1098  21 MMA  H0E  24  0.10229333  1.008
 305 opls_1084  22 MMA  H00  25  0.10399334  1.008
 306 opls_1085  22 MMA  C01  25 -0.04410666 12.011
 307 opls_1086  22 MMA  H02  25  0.10399334  1.008
 308 opls_1087  22 MMA  H03  25  0.10399334  1.008
 309 opls_1088  22 MMA  O04  25 -0.36630666 15.999
 310 opls_1089  22 MMA  C05  25  0.47199333 12.011
 311 opls_1090  22 MMA  O06  25 -0.45700667 15.999
 312 opls_1091  22 MMA  C07  25 -0.15540667 12.011
 313 opls_1092  22 MMA  C08  25 -0.16680667 12.011
 314 opls_1093  22 MMA  H09  25  0.14549333  1.008
 315 opls_1094  22 MMA  H0A  25  0.14549333  1.008
 316 opls_1095  22 MMA  C0B  25 -0.19220667 12.011
 317 opls_1096  22 MMA  H0C  25  0.10229333  1.008
 318 opls_1097  22 MMA  H0D  25  0.10229333  1.008
 319 opls_1098  22 MMA  H0E  25  0.10229333  1.008
 320 opls_1084  23 MMA  H00  26  0.10399334  1.008
 321 opls_1085  23 MMA  C01  26 -0.04410666 12.011
 322 opls_1086  23 MMA  H02  26  0.10399334  1.008
 323 opls_1087  23 MMA  H03  26  0.10399334  1.008
 324 opls_1088  23 MMA  O04  26 -0.36630666 15.999
 325 opls_1089  23 MMA  C05  26  0.47199333 12.011
 326 opls_1090  23 MMA  O06  26 -0.45700667 15.999
 327 opls_1091  23 MMA  C07  26 -0.15540667 12.011
 328 opls_1092  23 MMA  C08  26 -0.16680667 12.011
 329 opls_1093  23 MMA  H09  26  0.14549333  1.008
 330 opls_1094  23 MMA  H0A  26  0.14549333  1.008
 331 opls_1095  23 MMA  C0B  26 -0.19220667 12.011
 332 opls_1096  23 MMA  H0C  26  0.10229333  1.008
 333 opls_1097  23 MMA  H0D  26  0.10229333  1.008
 334 opls_1098  23 MMA  H0E  26  0.10229333  1.008
 335 opls_1084  24 MMA  H00  27  0.10399334  1.008
 336 opls_1085  24 MMA  C01  27 -0.04410666 12.011
 337 opls_1086  24 MMA  H02  27  0.10399334  1.008
 338 opls_1087  24 MMA  H03  27  0.10399334  1.008
 339 opls_1088  24 MMA  O04  27 -0.36630666 15.999
 340 opls_1089  24 MMA  C05  27  0.47199333 12.011
 341 opls_1090  24 MMA  O06  27 -0.45700667 15.999
 342 opls_1091  24 MMA  C07  27 -0.15540667 12.011
 343 opls_1092  24 MMA  C08  27 -0.16680667 12.011
 344 opls_1093  24 MMA  H09  27  0.14549333  1.008
 345 opls_1094  24 MMA  H0A  27  0.14549333  1.008
 346 opls_1095  24 MMA  C0B  27 -0.19220667 12.011
 347 opls_1096  24 MMA  H0C  27  0.10229333  1.008
 348 opls_1097  24 MMA  H0D  27  0.10229333  1.008
 349 opls_1098  24 MMA  H0E  27  0.10229333  1.008
 350 opls_1084  25 MMA  H00  28  0.10399334  1.008
 351 opls_1085  25 MMA  C01  28 -0.04410666 12.011
 352 opls_1086  25 MMA  H02  28  0.10399334  1.008
 353 opls_1087  25 MMA  H03  28  0.10399334  1.008
 354 opls_1088  25 MMA  O04  28 -0.36630666 15.999
 355 opls_1089  25 MMA  C05  28  0.47199333 12.011
 356 opls_1090  25 MMA  O06  28 -0.45700667 15.999
 357 opls_1091  25 MMA  C07  28 -0.15540667 12.011
 358 opls_1092  25 MMA  C08  28 -0.16680667 12.011
 359 opls_1093  25 MMA  H09  28  0.14549333  1.008
 360 opls_1094  25 MMA  H0A  28  0.14549333  1.008
 361 opls_1095  25 MMA  C0B  28 -0.19220667 12.011
 362 opls_1096  25 MMA  H0C  28  0.10229333  1.008
 363 opls_1097  25 MMA  H0D  28  0.10229333  1.008
 364 opls_1098  25 MMA  H0E  28  0.10229333  1.008
 365 opls_1084  26 MMA  H00  29  0.10399334  1.008
 366 opls_1085  26 MMA  C01  29 -0.04410666 12.011
 367 opls_1086  26 MMA  H02  29  0.10399334  1.008
 368 opls_1087  26 MMA  H03  29  0.10399334  1.008
 369 opls_1088  26 MMA  O04  29 -0.36630666 15.999
 370 opls_1089  26 MMA  C05  29  0.47199333 12.011
 371 opls_1090  26 MMA  O06  29 -0.45700667 15.999
 372 opls_1091  26 MMA  C07  29 -0.15540667 12.011
 373 opls_1092  26 MMA  C08  29 -0.16680667 12.011
 374 opls_1093  26 MMA  H09  29  0.14549333  1.008
 375 opls_1094  26 MMA  H0A  29  0.14549333  1.008
 376 opls_1095  26 MMA  C0B  29 -0.19220667 12.011
 377 opls_1096  26 MMA  H0C  29  0.10229333  1.008
 378 opls_1097  26 MMA  H0D  29  0.10229333  1.008
 379 opls_1098  26 MMA  H0E  29  0.10229333  1.008
 380 opls_1084  27 MMA  H00  30  0.10399334  1.008
 381 opls_1085  27 MMA  C01  30 -0.04410666 12.011
 382 opls_1086  27 MMA  H02  30  0.10399334  1.008
 383 opls_1087  27 MMA  H03  30  0.10399334  1.008
 384 opls_1088  27 MMA  O04  30 -0.36630666 15.999
 385 opls_1089  27 MMA  C05  30  0.47199333 12.011
 386 opls_1090  27 MMA  O06  30 -0.45700667 15.999
 387 opls_1091  27 MMA  C07  30 -0.15540667 12.011
 388 opls_1092  27 MMA  C08  30 -0.16680667 12.011
 389 opls_1093  27 MMA  H09  30  0.14549333  1.008
 390 opls_1094  27 MMA  H0A  30  0.14549333  1.008
 391 opls_1095  27 MMA  C0B  30 -0.19220667 12.011
 392 opls_1096  27 MMA  H0C  30  0.10229333  1.008
 393 opls_1097  27 MMA  H0D  30  0.10229333  1.008
 394 opls_1098  27 MMA  H0E  30  0.10229333  1.008
 395 opls_1084  28 MMA  H00  31  0.10399334  1.008
 396 opls_1085  28 MMA  C01  31 -0.04410666 12.011
 397 opls_1086  28 MMA  H02  31  0.10399334  1.008
 398 opls_1087  28 MMA  H03  31  0.10399334  1.008
 399 opls_1088  28 MMA  O04  31 -0.36630666 15.999
 400 opls_1089  28 MMA  C05  31  0.47199333 12.011
 401 opls_1090  28 MMA  O06  31 -0.45700667 15.999
 402 opls_1091  28 MMA  C07  31 -0.15540667 12.011
 403 opls_1092  28 MMA  C08  31 -0.16680667 12.011
 404 opls_1093  28 MMA  H09  31  0.14549333  1.008
 405 opls_1094  28 MMA  H0A  31  0.14549333  1.008
 406 opls_1095  28 MMA  C0B  31 -0.19220667 12.011
 407 opls_1096  28 MMA  H0C  31  0.10229333  1.008
 408 opls_1097  28 MMA  H0D  31  0.10229333  1.008
 409 opls_1098  28 MMA  H0E  31  0.10229333  1.008
 410 opls_1084  29 MMA  H00  32  0.10399334  1.008
 411 opls_1085  29 MMA  C01  32 -0.04410666 12.011
 412 opls_1086  29 MMA  H02  32  0.10399334  1.008
 413 opls_1087  29 MMA  H03  32  0.10399334  1.008
 414 opls_1088  29 MMA  O04  32 -0.36630666 15.999
 415 opls_1089  29 MMA  C05  32  0.47199333 12.011
 416 opls_1090  29 MMA  O06  32 -0.45700667 15.999
 417 opls_1091  29 MMA  C07  32 -0.15540667 12.011
 418 opls_1092  29 MMA  C08  32 -0.16680667 12.011
 419 opls_1093  29 MMA  H09  32  0.14549333  1.008
 420 opls_1094  29 MMA  H0A  32  0.14549333  1.008
 421 opls_1095  29 MMA  C0B  32 -0.19220667 12.011
 422 opls_1096  29 MMA  H0C  32  0.10229333  1.008
 423 opls_1097  29 MMA  H0D  32  0.10229333  1.008
 424 opls_1098  29 MMA  H0E  32  0.10229333  1.008
 425 opls_1084  30 MMA  H00  33  0.10399334  1.008
 426 opls_1085  30 MMA  C01  33 -0.04410666 12.011
 427 opls_1086  30 MMA  H02  33  0.10399334  1.008
 428 opls_1087  30 MMA  H03  33  0.10399334  1.008
 429 opls_1088  30 MMA  O04  33 -0.36630666 15.999
 430 opls_1089  30 MMA  C05  33  0.47199333 12.011
 431 opls_1090  30 MMA  O06  33 -0.45700667 15.999
 432 opls_1091  30 MMA  C07  33 -0.15540667 12.011
 433 opls_1092  30 MMA  C08  33 -0.16680667 12.011
 434 opls_1093  30 MMA  H09  33  0.14549333  1.008
 435 opls_1094  30 MMA  H0A  33  0.14549333  1.008
 436 opls_1095  30 MMA  C0B  33 -0.19220667 12.011
 437 opls_1096  30 MMA  H0C  33  0.10229333  1.008
 438 opls_1097  30 MMA  H0D  33  0.10229333  1.008
 439 opls_1098  30 MMA  H0E  33  0.10229333  1.008
 440 opls_1084  31 MMA  H00  34  0.10399334  1.008
 441 opls_1085  31 MMA  C01  34 -0.04410666 12.011
 442 opls_1086  31 MMA  H02  34  0.10399334  1.008
 443 opls_1087  31 MMA  H03  34  0.10399334  1.008
 444 opls_1088  31 MMA  O04  34 -0.36630666 15.999
 445 opls_1089  31 MMA  C05  34  0.47199333 12.011
 446 opls_1090  31 MMA  O06  34 -0.45700667 15.999
 447 opls_1091  31 MMA  C07  34 -0.15540667 12.011
 448 opls_1092  31 MMA  C08  34 -0.16680667 12.011
 449 opls_1093  31 MMA  H09  34  0.14549333  1.008
 450 opls_1094  31 MMA  H0A  34  0.14549333  1.008
 451 opls_1095  31 MMA  C0B  34 -0.19220667 12.011
 452 opls_1096  31 MMA  H0C  34  0.10229333  1.008
 453 opls_1097  31 MMA  H0D  34  0.10229333  1.008
 454 opls_1098  31 MMA  H0E  34  0.10229333  1.008
 455 opls_1084  32 MMA  H00  35  0.10399334  1.008
 456 opls_1085  32 MMA  C01  35 -0.04410666 12.011
 457 opls_1086  32 MMA  H02  35  0.10399334  1.008
 458 opls_1087  32 MMA  H03  35  0.10399334  1.008
 459 opls_1088  32 MMA  O04  35 -0.36630666 15.999
 460 opls_1089  32 MMA  C05  35  0.47199333 12.011
 461 opls_1090  32 MMA  O06  35 -0.45700667 15.999
 462 opls_1091  32 MMA  C07  35 -0.15540667 12.011
 463 opls_1092  32 MMA  C08  35 -0.16680667 12.011
 464 opls_1093  32 MMA  H09  35  0.14549333  1.008
 465 opls_1094  32 MMA  H0A  35  0.14549333  1.008
 466 opls_1095  32 MMA  C0B  35 -0.19220667 12.011
 467 opls_1096  32 MMA  H0C  35  0.10229333  1.008
 468 opls_1097  32 MMA  H0D  35  0.10229333  1.008
 469 opls_1098  32 MMA  H0E  35  0.10229333  1.008
 470 opls_1084  33 MMA  H00  36  0.10399334  1.008
 471 opls_1085  33 MMA  C01  36 -0.04410666 12.011
 472 opls_1086  33 MMA  H02  36  0.10399334  1.008
 473 opls_1087  33 MMA  H03  36  0.10399334  1.008
 474 opls_1088  33 MMA  O04  36 -0.36630666 15.999
 475 opls_1089  33 MMA  C05  36  0.47199333 12.011
 476 opls_1090  33 MMA  O06  36 -0.45700667 15.999
 477 opls_1091  33 MMA  C07  36 -0.15540667 12.011
 478 opls_1092  33 MMA  C08  36 -0.16680667 12.011
 479 opls_1093  33 MMA  H09  36  0.14549333  1.008
 480 opls_1094  33 MMA  H0A  36  0.14549333  1.008
 481 opls_1095  33 MMA  C0B  36 -0.19220667 12.011
 482 opls_1096  33 MMA  H0C  36  0.10229333  1.008
 483 opls_1097  33 MMA  H0D  36  0.10229333  1.008
 484 opls_1098  33 MMA  H0E  36  0.10229333  1.008
 485 opls_1084  34 MMA  H00  37  0.10399334  1.008
 486 opls_1085  34 MMA  C01  37 -0.04410666 12.011
 487 opls_1086  34 MMA  H02  37  0.10399334  1.008
 488 opls_1087  34 MMA  H03  37  0.10399334  1.008
 489 opls_1088  34 MMA  O04  37 -0.36630666 15.999
 490 opls_1089  34 MMA  C05  37  0.47199333 12.011
 491 opls_1090  34 MMA  O06  37 -0.45700667 15.999
 492 opls_1091  34 MMA  C07  37 -0.15540667 12.011
 493 opls_1092  34 MMA  C08  37 -0.16680667 12.011
 494 opls_1093  34 MMA  H09  37  0.14549333  1.008
 495 opls_1094  34 MMA  H0A  37  0.14549333  1.008
 496 opls_1095  34 MMA  C0B  37 -0.19220667 12.011
 497 opls_1096  34 MMA  H0C  37  0.10229333  1.008
 498 opls_1097  34 MMA  H0D  37  0.10229333  1.008
 499 opls_1098  34 MMA  H0E  37  0.10229333  1.008
 500 opls_1084  35 MMA  H00  38  0.10399334  1.008
 501 opls_1085  35 MMA  C01  38 -0.04410666 12.011
 502 opls_1086  35 MMA  H02  38  0.10399334  1.008
 503 opls_1087  35 MMA  H03  38  0.10399334  1.008
 504 opls_1088  35 MMA  O04  38 -0.36630666 15.999
 505 opls_1089  35 MMA  C05  38  0.47199333 12.011
 506 opls_1090  35 MMA  O06  38 -0.45700667 15.999
 507 opls_1091  35 MMA  C07  38 -0.15540667 12.011
 508 opls_1092  35 MMA  C08  38 -0.16680667 12.011
 509 opls_1093  35 MMA  H09  38  0.14549333  1.008
 510 opls_1094  35 MMA  H0A  38  0.14549333  1.008
 511 opls_1095  35 MMA  C0B  38 -0.19220667 12.011
 512 opls_1096  35 MMA  H0C  38  0.10229333  1.008
 513 opls_1097  35 MMA  H0D  38  0.10229333  1.008
 514 opls_1098  35 MMA  H0E  38  0.10229333  1.008
 515 opls_1084  36 MMA  H00  39  0.10399334  1.008
 516 opls_1085  36 MMA  C01  39 -0.04410666 12.011
 517 opls_1086  36 MMA  H02  39  0.10399334  1.008
 518 opls_1087  36 MMA  H03  39  0.10399334  1.008
 519 opls_1088  36 MMA  O04  39 -0.36630666 15.999
 520 opls_1089  36 MMA  C05  39  0.47199333 12.011
 521 opls_1090  36 MMA  O06  39 -0.45700667 15.999
 522 opls_1091  36 MMA  C07  39 -0.15540667 12.011
 523 opls_1092  36 MMA  C08  39 -0.16680667 12.011
 524 opls_1093  36 MMA  H09  39  0.14549333  1.008
 525 opls_1094  36 MMA  H0A  39  0.14549333  1.008
 526 opls_1095  36 MMA  C0B  39 -0.19220667 12.011
 527 opls_1096  36 MMA  H0C  39  0.10229333  1.008
 528 opls_1097  36 MMA  H0D  39  0.10229333  1.008
 529 opls_1098  36 MMA  H0E  39  0.10229333  1.008
 530 opls_1084  37 MMA  H00  40  0.10399334  1.008
 531 opls_1085  37 MMA  C01  40 -0.04410666 12.011
 532 opls_1086  37 MMA  H02  40  0.10399334  1.008
 533 opls_1087  37 MMA  H03  40  0.10399334  1.008
 534 opls_1088  37 MMA  O04  40 -0.36630666 15.999
 535 opls_1089  37 MMA  C05  40  0.47199333 12.011
 536 opls_1090  37 MMA  O06  40 -0.45700667 15.999
 537 opls_1091  37 MMA  C07  40 -0.15540667 12.011
 538 opls_1092  37 MMA  C08  40 -0.16680667 12.011
 539 opls_1093  37 MMA  H09  40  0.14549333  1.008
 540 opls_1094  37 MMA  H0A  40  0.14549333  1.008
 541 opls_1095  37 MMA  C0B  40 -0.19220667 12.011
 542 opls_1096  37 MMA  H0C  40  0.10229333  1.008
 543 opls_1097  37 MMA  H0D  40  0.10229333  1.008
 544 opls_1098  37 MMA  H0E  40  0.10229333  1.008
 545 opls_1084  38 MMA  H00  41  0.10399334  1.008
 546 opls_1085  38 MMA  C01  41 -0.04410666 12.011
 547 opls_1086  38 MMA  H02  41  0.10399334  1.008
 548 opls_1087  38 MMA  H03  41  0.10399334  1.008
 549 opls_1088  38 MMA  O04  41 -0.36630666 15.999
 550 opls_1089  38 MMA  C05  41  0.47199333 12.011
 551 opls_1090  38 MMA  O06  41 -0.45700667 15.999
 552 opls_1091  38 MMA  C07  41 -0.15540667 12.011
 553 opls_1092  38 MMA  C08  41 -0.16680667 12.011
 554 opls_1093  38 MMA  H09  41  0.14549333  1.008
 555 opls_1094  38 MMA  H0A  41  0.14549333  1.008
 556 opls_1095  38 MMA  C0B  41 -0.19220667 12.011
 557 opls_1096  38 MMA  H0C  41  0.10229333  1.008
 558 opls_1097  38 MMA  H0D  41  0.10229333  1.008
 559 opls_1098  38 MMA  H0E  41  0.10229333  1.008
 560 opls_1084  39 MMA  H00  42  0.10399334  1.008
 561 opls_1085  39 MMA  C01  42 -0.04410666 12.011
 562 opls_1086  39 MMA  H02  42  0.10399334  1.008
 563 opls_1087  39 MMA  H03  42  0.10399334  1.008
 564 opls_1088  39 MMA  O04  42 -0.36630666 15.999
 565 opls_1089  39 MMA  C05  42  0.47199333 12.011
 566 opls_1090  39 MMA  O06  42 -0.45700667 15.999
 567 opls_1091  39 MMA  C07  42 -0.15540667 12.011
 568 opls_1092  39 MMA  C08  42 -0.16680667 12.011
 569 opls_1093  39 MMA  H09  42  0.14549333  1.008
 570 opls_1094  39 MMA  H0A  42  0.14549333  1.008
 571 opls_1095  39 MMA  C0B  42 -0.19220667 12.011
 572 opls_1096  39 MMA  H0C  42  0.10229333  1.008
 573 opls_1097  39 MMA  H0D  42  0.10229333  1.008
 574 opls_1098  39 MMA  H0E  42  0.10229333  1.008
 575 opls_1084  40 MMA  H00  43  0.10399334  1.008
 576 opls_1085  40 MMA  C01  43 -0.04410666 12.011
 577 opls_1086  40 MMA  H02  43  0.10399334  1.008
 578 opls_1087  40 MMA  H03  43  0.10399334  1.008
 579 opls_1088  40 MMA  O04  43 -0.36630666 15.999
 580 opls_1089  40 MMA  C05  43  0.47199333 12.011
 581 opls_1090  40 MMA  O06  43 -0.45700667 15.999
 582 opls_1091  40 MMA  C07  43 -0.15540667 12.011
 583 opls_1092  40 MMA  C08  43 -0.16680667 12.011
 584 opls_1093  40 MMA  H09  43  0.14549333  1.008
 585 opls_1094  40 MMA  H0A  43  0.14549333  1.008
 586 opls_1095  40 MMA  C0B  43 -0.19220667 12.011
 587 opls_1096  40 MMA  H0C  43  0.10229333  1.008
 588 opls_1097  40 MMA  H0D  43  0.10229333  1.008
 589 opls_1098  40 MMA  H0E  43  0.10229333  1.008
 590 opls_1084  41 MMA  H00  44  0.10399334  1.008
 591 opls_1085  41 MMA  C01  44 -0.04410666 12.011
 592 opls_1086  41 MMA  H02  44  0.10399334  1.008
 593 opls_1087  41 MMA  H03  44  0.10399334  1.008
 594 opls_1088  41 MMA  O04  44 -0.36630666 15.999
 595 opls_1089  41 MMA  C05  44  0.47199333 12.011
 596 opls_1090  41 MMA  O06  44 -0.45700667 15.999
 597 opls_1091  41 MMA  C07  44 -0.15540667 12.011
 598 opls_1092  41 MMA  C08  44 -0.16680667 12.011
 599 opls_1093  41 MMA  H09  44  0.14549333  1.008
 600 opls_1094  41 MMA  H0A  44  0.14549333  1.008
 601 opls_1095  41 MMA  C0B  44 -0.19220667 12.011
 602 opls_1096  41 MMA  H0C  44  0.10229333  1.008
 603 opls_1097  41 MMA  H0D  44  0.10229333  1.008
 604 opls_1098  41 MMA  H0E  44  0.10229333  1.008
 605 opls_1084  42 MMA  H00  45  0.10399334  1.008
 606 opls_1085  42 MMA  C01  45 -0.04410666 12.011
 607 opls_1086  42 MMA  H02  45  0.10399334  1.008
 608 opls_1087  42 MMA  H03  45  0.10399334  1.008
 609 opls_1088  42 MMA  O04  45 -0.36630666 15.999
 610 opls_1089  42 MMA  C05  45  0.47199333 12.011
 611 opls_1090  42 MMA  O06  45 -0.45700667 15.999
 612 opls_1091  42 MMA  C07  45 -0.15540667 12.011
 613 opls_1092  42 MMA  C08  45 -0.16680667 12.011
 614 opls_1093  42 MMA  H09  45  0.14549333  1.008
 615 opls_1094  42 MMA  H0A  45  0.14549333  1.008
 616 opls_1095  42 MMA  C0B  45 -0.19220667 12.011
 617 opls_1096  42 MMA  H0C  45  0.10229333  1.008
 618 opls_1097  42 MMA  H0D  45  0.10229333  1.008
 619 opls_1098  42 MMA  H0E  45  0.10229333  1.008
 620 opls_1084  43 MMA  H00  46  0.10399334  1.008
 621 opls_1085  43 MMA  C01  46 -0.04410666 12.011
 622 opls_1086  43 MMA  H02  46  0.10399334  1.008
 623 opls_1087  43 MMA  H03  46  0.10399334  1.008
 624 opls_1088  43 MMA  O04  46 -0.36630666 15.999
 625 opls_1089  43 MMA  C05  46  0.47199333 12.011
 626 opls_1090  43 MMA  O06  46 -0.45700667 15.999
 627 opls_1091  43 MMA  C07  46 -0.15540667 12.011
 628 opls_1092  43 MMA  C08  46 -0.16680667 12.011
 629 opls_1093  43 MMA  H09  46  0.14549333  1.008
 630 opls_1094  43 MMA  H0A  46  0.14549333  1.008
 631 opls_1095  43 MMA  C0B  46 -0.19220667 12.011
 632 opls_1096  43 MMA  H0C  46  0.10229333  1.008
 633 opls_1097  43 MMA  H0D  46  0.10229333  1.008
 634 opls_1098  43 MMA  H0E  46  0.10229333  1.008
 635 opls_1084  44 MMA  H00  47  0.10399334  1.008
 636 opls_1085  44 MMA  C01  47 -0.04410666 12.011
 637 opls_1086  44 MMA  H02  47  0.10399334  1.008
 638 opls_1087  44 MMA  H03  47  0.10399334  1.008
 639 opls_1088  44 MMA  O04  47 -0.36630666 15.999
 640 opls_1089  44 MMA  C05  47  0.47199333 12.011
 641 opls_1090  44 MMA  O06  47 -0.45700667 15.999
 642 opls_1091  44 MMA  C07  47 -0.15540667 12.011
 643 opls_1092  44 MMA  C08  47 -0.16680667 12.011
 644 opls_1093  44 MMA  H09  47  0.14549333  1.008
 645 opls_1094  44 MMA  H0A  47  0.14549333  1.008
 646 opls_1095  44 MMA  C0B  47 -0.19220667 12.011
 647 opls_1096  44 MMA  H0C  47  0.10229333  1.008
 648 opls_1097  44 MMA  H0D  47  0.10229333  1.008
 649 opls_1098  44 MMA  H0E  47  0.10229333  1.008
 650 opls_1084  45 MMA  H00  48  0.10399334  1.008
 651 opls_1085  45 MMA  C01  48 -0.04410666 12.011
 652 opls_1086  45 MMA  H02  48  0.10399334  1.008
 653 opls_1087  45 MMA  H03  48  0.10399334  1.008
 654 opls_1088  45 MMA  O04  48 -0.36630666 15.999
 655 opls_1089  45 MMA  C05  48  0.47199333 12.011
 656 opls_1090  45 MMA  O06  48 -0.45700667 15.999
 657 opls_1091  45 MMA  C07  48 -0.15540667 12.011
 658 opls_1092  45 MMA  C08  48 -0.16680667 12.011
 659 opls_1093  45 MMA  H09  48  0.14549333  1.008
 660 opls_1094  45 MMA  H0A  48  0.14549333  1.008
 661 opls_1095  45 MMA  C0B  48 -0.19220667 12.011
 662 opls_1096  45 MMA  H0C  48  0.10229333  1.008
 663 opls_1097  45 MMA  H0D  48  0.10229333  1.008
 664 opls_1098  45 MMA  H0E  48  0.10229333  1.008
 665 opls_1084  46 MMA  H00  49  0.10399334  1.008
 666 opls_1085  46 MMA  C01  49 -0.04410666 12.011
 667 opls_1086  46 MMA  H02  49  0.10399334  1.008
 668 opls_1087  46 MMA  H03  49  0.10399334  1.008
 669 opls_1088  46 MMA  O04  49 -0.36630666 15.999
 670 opls_1089  46 MMA  C05  49  0.47199333 12.011
 671 opls_1090  46 MMA  O06  49 -0.45700667 15.999
 672 opls_1091  46 MMA  C07  49 -0.15540667 12.011
 673 opls_1092  46 MMA  C08  49 -0.16680667 12.011
 674 opls_1093  46 MMA  H09  49  0.14549333  1.008
 675 opls_1094  46 MMA  H0A  49  0.14549333  1.008
 676 opls_1095  46 MMA  C0B  49 -0.19220667 12.011
 677 opls_1096  46 MMA  H0C  49  0.10229333  1.008
 678 opls_1097  46 MMA  H0D  49  0.10229333  1.008
 679 opls_1098  46 MMA  H0E  49  0.10229333  1.008
 680 opls_1084  47 MMA  H00  50  0.10399334  1.008
 681 opls_1085  47 MMA  C01  50 -0.04410666 12.011
 682 opls_1086  47 MMA  H02  50  0.10399334  1.008
 683 opls_1087  47 MMA  H03  50  0.10399334  1.008
 684 opls_1088  47 MMA  O04  50 -0.36630666 15.999
 685 opls_1089  47 MMA  C05  50  0.47199333 12.011
 686 opls_1090  47 MMA  O06  50 -0.45700667 15.999
 687 opls_1091  47 MMA  C07  50 -0.15540667 12.011
 688 opls_1092  47 MMA  C08  50 -0.16680667 12.011
 689 opls_1093  47 MMA  H09  50  0.14549333  1.008
 690 opls_1094  47 MMA  H0A  50  0.14549333  1.008
 691 opls_1095  47 MMA  C0B  50 -0.19220667 12.011
 692 opls_1096  47 MMA  H0C  50  0.10229333  1.008
 693 opls_1097  47 MMA  H0D  50  0.10229333  1.008
 694 opls_1098  47 MMA  H0E  50  0.10229333  1.008
 695 opls_1084  48 MMA  H00  51  0.10399334  1.008
 696 opls_1085  48 MMA  C01  51 -0.04410666 12.011
 697 opls_1086  48 MMA  H02  51  0.10399334  1.008
 698 opls_1087  48 MMA  H03  51  0.10399334  1.008
 699 opls_1088  48 MMA  O04  51 -0.36630666 15.999
 700 opls_1089  48 MMA  C05  51  0.47199333 12.011
 701 opls_1090  48 MMA  O06  51 -0.45700667 15.999
 702 opls_1091  48 MMA  C07  51 -0.15540667 12.011
 703 opls_1092  48 MMA  C08  51 -0.16680667 12.011
 704 opls_1093  48 MMA  H09  51  0.14549333  1.008
 705 opls_1094  48 MMA  H0A  51  0.14549333  1.008
 706 opls_1095  48 MMA  C0B  51 -0.19220667 12.011
 707 opls_1096  48 MMA  H0C  51  0.10229333  1.008
 708 opls_1097  48 MMA  H0D  51  0.10229333  1.008
 709 opls_1098  48 MMA  H0E  51  0.10229333  1.008
 710 opls_1084  49 MMA  H00  52  0.10399334  1.008
 711 opls_1085  49 MMA  C01  52 -0.04410666 12.011
 712 opls_1086  49 MMA  H02  52  0.10399334  1.008
 713 opls_1087  49 MMA  H03  52  0.10399334  1.008
 714 opls_1088  49 MMA  O04  52 -0.36630666 15.999
 715 opls_1089  49 MMA  C05  52  0.47199333 12.011
 716 opls_1090  49 MMA  O06  52 -0.45700667 15.999
 717 opls_1091  49 MMA  C07  52 -0.15540667 12.011
 718 opls_1092  49 MMA  C08  52 -0.16680667 12.011
 719 opls_1093  49 MMA  H09  52  0.14549333  1.008
 720 opls_1094  49 MMA  H0A  52  0.14549333  1.008
 721 opls_1095  49 MMA  C0B  52 -0.19220667 12.011
 722 opls_1096  49 MMA  H0C  52  0.10229333  1.008
 723 opls_1097  49 MMA  H0D  52  0.10229333  1.008
 724 opls_1098  49 MMA  H0E  52  0.10229333  1.008
 725 opls_1084  50 MMA  H00  53  0.10399334  1.008
 726 opls_1085  50 MMA  C01  53 -0.04410666 12.011
 727 opls_1086  50 MMA  H02  53  0.10399334  1.008
 728 opls_1087  50 MMA  H03  53  0.10399334  1.008
 729 opls_1088  50 MMA  O04  53 -0.36630666 15.999
 730 opls_1089  50 MMA  C05  53  0.47199333 12.011
 731 opls_1090  50 MMA  O06  53 -0.45700667 15.999
 732 opls_1091  50 MMA  C07  53 -0.15540667 12.011
 733 opls_1092  50 MMA  C08  53 -0.16680667 12.011
 734 opls_1093  50 MMA  H09  53  0.14549333  1.008
 735 opls_1094  50 MMA  H0A  53  0.14549333  1.008
 736 opls_1095  50 MMA  C0B  53 -0.19220667 12.011
 737 opls_1096  50 MMA  H0C  53  0.10229333  1.008
 738 opls_1097  50 MMA  H0D  53  0.10229333  1.008
 739 opls_1098  50 MMA  H0E  53  0.10229333  1.008
 740 opls_1084  51 MMA  H00  54  0.10399334  1.008
 741 opls_1085  51 MMA  C01  54 -0.04410666 12.011
 742 opls_1086  51 MMA  H02  54  0.10399334  1.008
 743 opls_1087  51 MMA  H03  54  0.10399334  1.008
 744 opls_1088  51 MMA  O04  54 -0.36630666 15.999
 745 opls_1089  51 MMA  C05  54  0.47199333 12.011
 746 opls_1090  51 MMA  O06  54 -0.45700667 15.999
 747 opls_1091  51 MMA  C07  54 -0.15540667 12.011
 748 opls_1092  51 MMA  C08  54 -0.16680667 12.011
 749 opls_1093  51 MMA  H09  54  0.14549333  1.008
 750 opls_1094  51 MMA  H0A  54  0.14549333  1.008
 751 opls_1095  51 MMA  C0B  54 -0.19220667 12.011
 752 opls_1096  51 MMA  H0C  54  0.10229333  1.008
 753 opls_1097  51 MMA  H0D  54  0.10229333  1.008
 754 opls_1098  51 MMA  H0E  54  0.10229333  1.008
 755 opls_1084  52 MMA  H00  55  0.10399334  1.008
 756 opls_1085  52 MMA  C01  55 -0.04410666 12.011
 757 opls_1086  52 MMA  H02  55  0.10399334  1.008
 758 opls_1087  52 MMA  H03  55  0.10399334  1.008
 759 opls_1088  52 MMA  O04  55 -0.36630666 15.999
 760 opls_1089  52 MMA  C05  55  0.47199333 12.011
 761 opls_1090  52 MMA  O06  55 -0.45700667 15.999
 762 opls_1091  52 MMA  C07  55 -0.15540667 12.011
 763 opls_1092  52 MMA  C08  55 -0.16680667 12.011
 764 opls_1093  52 MMA  H09  55  0.14549333  1.008
 765 opls_1094  52 MMA  H0A  55  0.14549333  1.008
 766 opls_1095  52 MMA  C0B  55 -0.19220667 12.011
 767 opls_1096  52 MMA  H0C  55  0.10229333  1.008
 768 opls_1097  52 MMA  H0D  55  0.10229333  1.008
 769 opls_1098  52 MMA  H0E  55  0.10229333  1.008
 770 opls_1084  53 MMA  H00  56  0.10399334  1.008
 771 opls_1085  53 MMA  C01  56 -0.04410666 12.011
 772 opls_1086  53 MMA  H02  56  0.10399334  1.008
 773 opls_1087  53 MMA  H03  56  0.10399334  1.008
 774 opls_1088  53 MMA  O04  56 -0.36630666 15.999
 775 opls_1089  53 MMA  C05  56  0.47199333 12.011
 776 opls_1090  53 MMA  O06  56 -0.45700667 15.999
 777 opls_1091  53 MMA  C07  56 -0.15540667 12.011
 778 opls_1092  53 MMA  C08  56 -0.16680667 12.011
 779 opls_1093  53 MMA  H09  56  0.14549333  1.008
 780 opls_1094  53 MMA  H0A  56  0.14549333  1.008
 781 opls_1095  53 MMA  C0B  56 -0.19220667 12.011
 782 opls_1096  53 MMA  H0C  56  0.10229333  1.008
 783 opls_1097  53 MMA  H0D  56  0.10229333  1.008
 784 opls_1098  53 MMA  H0E  56  0.10229333  1.008
 785 opls_1084  54 MMA  H00  57  0.10399334  1.008
 786 opls_1085  54 MMA  C01  57 -0.04410666 12.011
 787 opls_1086  54 MMA  H02  57  0.10399334  1.008
 788 opls_1087  54 MMA  H03  57  0.10399334  1.008
 789 opls_1088  54 MMA  O04  57 -0.36630666 15.999
 790 opls_1089  54 MMA  C05  57  0.47199333 12.011
 791 opls_1090  54 MMA  O06  57 -0.45700667 15.999
 792 opls_1091  54 MMA  C07  57 -0.15540667 12.011
 793 opls_1092  54 MMA  C08  57 -0.16680667 12.011
 794 opls_1093  54 MMA  H09  57  0.14549333  1.008
 795 opls_1094  54 MMA  H0A  57  0.14549333  1.008
 796 opls_1095  54 MMA  C0B  57 -0.19220667 12.011
 797 opls_1096  54 MMA  H0C  57  0.10229333  1.008
 798 opls_1097  54 MMA  H0D  57  0.10229333  1.008
 799 opls_1098  54 MMA  H0E  57  0.10229333  1.008
 800 opls_1084  55 MMA  H00  58  0.10399334  1.008
 801 opls_1085  55 MMA  C01  58 -0.04410666 12.011
 802 opls_1086  55 MMA  H02  58  0.10399334  1.008
 803 opls_1087  55 MMA  H03  58  0.10399334  1.008
 804 opls_1088  55 MMA  O04  58 -0.36630666 15.999
 805 opls_1089  55 MMA  C05  58  0.47199333 12.011
 806 opls_1090  55 MMA  O06  58 -0.45700667 15.999
 807 opls_1091  55 MMA  C07  58 -0.15540667 12.011
 808 opls_1092  55 MMA  C08  58 -0.16680667 12.011
 809 opls_1093  55 MMA  H09  58  0.14549333  1.008
 810 opls_1094  55 MMA  H0A  58  0.14549333  1.008
 811 opls_1095  55 MMA  C0B  58 -0.19220667 12.011
 812 opls_1096  55 MMA  H0C  58  0.10229333  1.008
 813 opls_1097  55 MMA  H0D  58  0.10229333  1.008
 814 opls_1098  55 MMA  H0E  58  0.10229333  1.008
 815 opls_1084  56 MMA  H00  59  0.10399334  1.008
 816 opls_1085  56 MMA  C01  59 -0.04410666 12.011
 817 opls_1086  56 MMA  H02  59  0.10399334  1.008
 818 opls_1087  56 MMA  H03  59  0.10399334  1.008
 819 opls_1088  56 MMA  O04  59 -0.36630666 15.999
 820 opls_1089  56 MMA  C05  59  0.47199333 12.011
 821 opls_1090  56 MMA  O06  59 -0.45700667 15.999
 822 opls_1091  56 MMA  C07  59 -0.15540667 12.011
 823 opls_1092  56 MMA  C08  59 -0.16680667 12.011
 824 opls_1093  56 MMA  H09  59  0.14549333  1.008
 825 opls_1094  56 MMA  H0A  59  0.14549333  1.008
 826 opls_1095  56 MMA  C0B  59 -0.19220667 12.011
 827 opls_1096  56 MMA  H0C  59  0.10229333  1.008
 828 opls_1097  56 MMA  H0D  59  0.10229333  1.008
 829 opls_1098  56 MMA  H0E  59  0.10229333  1.008
 830 opls_1084  57 MMA  H00  60  0.10399334  1.008
 831 opls_1085  57 MMA  C01  60 -0.04410666 12.011
 832 opls_1086  57 MMA  H02  60  0.10399334  1.008
 833 opls_1087  57 MMA  H03  60  0.10399334  1.008
 834 opls_1088  57 MMA  O04  60 -0.36630666 15.999
 835 opls_1089  57 MMA  C05  60  0.47199333 12.011
 836 opls_1090  57 MMA  O06  60 -0.45700667 15.999
 837 opls_1091  57 MMA  C07  60 -0.15540667 12.011
 838 opls_1092  57 MMA  C08  60 -0.16680667 12.011
 839 opls_1093  57 MMA  H09  60  0.14549333  1.008
 840 opls_1094  57 MMA  H0A  60  0.14549333  1.008
 841 opls_1095  57 MMA  C0B  60 -0.19220667 12.011
 842 opls_1096  57 MMA  H0C  60  0.10229333  1.008
 843 opls_1097  57 MMA  H0D  60  0.10229333  1.008
 844 opls_1098  57 MMA  H0E  60  0.10229333  1.008
 845 opls_1084  58 MMA  H00  61  0.10399334  1.008
 846 opls_1085  58 MMA  C01  61 -0.04410666 12.011
 847 opls_1086  58 MMA  H02  61  0.10399334  1.008
 848 opls_1087  58 MMA  H03  61  0.10399334  1.008
 849 opls_1088  58 MMA  O04  61 -0.36630666 15.999
 850 opls_1089  58 MMA  C05  61  0.47199333 12.011
 851 opls_1090  58 MMA  O06  61 -0.45700667 15.999
 852 opls_1091  58 MMA  C07  61 -0.15540667 12.011
 853 opls_1092  58 MMA  C08  61 -0.16680667 12.011
 854 opls_1093  58 MMA  H09  61  0.14549333  1.008
 855 opls_1094  58 MMA  H0A  61  0.14549333  1.008
 856 opls_1095  58 MMA  C0B  61 -0.19220667 12.011
 857 opls_1096  58 MMA  H0C  61  0.10229333  1.008
 858 opls_1097  58 MMA  H0D  61  0.10229333  1.008
 859 opls_1098  58 MMA  H0E  61  0.10229333  1.008
 860 opls_1084  59 MMA  H00  62  0.10399334  1.008
 861 opls_1085  59 MMA  C01  62 -0.04410666 12.011
 862 opls_1086  59 MMA  H02  62  0.10399334  1.008
 863 opls_1087  59 MMA  H03  62  0.10399334  1.008
 864 opls_1088  59 MMA  O04  62 -0.36630666 15.999
 865 opls_1089  59 MMA  C05  62  0.47199333 12.011
 866 opls_1090  59 MMA  O06  62 -0.45700667 15.999
 867 opls_1091  59 MMA  C07  62 -0.15540667 12.011
 868 opls_1092  59 MMA  C08  62 -0.16680667 12.011
 869 opls_1093  59 MMA  H09  62  0.14549333  1.008
 870 opls_1094  59 MMA  H0A  62  0.14549333  1.008
 871 opls_1095  59 MMA  C0B  62 -0.19220667 12.011
 872 opls_1096  59 MMA  H0C  62  0.10229333  1.008
 873 opls_1097  59 MMA  H0D  62  0.10229333  1.008
 874 opls_1098  59 MMA  H0E  62  0.10229333  1.008
 875 opls_1000  60 EH   H00  63  0.10189445  1.008
 876 opls_1001  60 EH   C01  63 -0.19260555 12.011
 877 opls_1002  60 EH   H02  63  0.10189445  1.008
 878 opls_1003  60 EH   H03  63  0.10189445  1.008
 879 opls_1004  60 EH   C04  63 -0.15320555 12.011
 880 opls_1005  60 EH   C05  63 -0.16930555 12.011
 881 opls_1006  60 EH   H06  63  0.14479445  1.008
 882 opls_1007  60 EH   H07  63  0.14479445  1.008
 883 opls_1008  60 EH   C08  63  0.47689445 12.011
 884 opls_1009  60 EH   O09  63 -0.46140555 15.999
 885 opls_1010  60 EH   O0A  63 -0.37160555 15.999
 886 opls_1011  60 EH   C0B  63  0.01739445 12.011
 887 opls_1012  60 EH   H0C  63  0.10599445  1.008
 888 opls_1013  60 EH   H0D  63  0.10599445  1.008
 889 opls_1014  60 EH   C0E  63 -0.11380555 12.011
 890 opls_1015  60 EH   H0F  63  0.10879445  1.008
 891 opls_1016  60 EH   C0G  63 -0.17230556 12.011
 892 opls_1017  60 EH   H0H  63  0.09059444  1.008
 893 opls_1018  60 EH   H0I  63  0.09059444  1.008
 894 opls_1019  60 EH   C0J  63 -0.23440556 12.011
 895 opls_1020  60 EH   H0K  63  0.08389444  1.008
 896 opls_1021  60 EH   H0M  63  0.08389444  1.008
 897 opls_1022  60 EH   H0N  63  0.08389444  1.008
 898 opls_1023  60 EH   C0O  63 -0.16680556 12.011
 899 opls_1024  60 EH   H0P  63  0.09399444  1.008
 900 opls_1025  60 EH   H0Q  63  0.09399444  1.008
 901 opls_1026  60 EH   C0R  63 -0.17620556 12.011
 902 opls_1027  60 EH   H0S  63  0.08869444  1.008
 903 opls_1028  60 EH   H0T  63  0.08869444  1.008
 904 opls_1029  60 EH   C0U  63 -0.17710556 12.011
 905 opls_1030  60 EH   H0V  63  0.08599444  1.008
 906 opls_1031  60 EH   H0W  63  0.08599444  1.008
 907 opls_1032  60 EH   C0X  64 -0.23570556 12.011
 908 opls_1033  60 EH   H0Y  64  0.08129444  1.008
 909 opls_1034  60 EH   H0Z  64  0.08129444  1.008
 910 opls_1035  60 EH   H10  64  0.08129444  1.008
 911 opls_1135  61 ST   H00  65  0.10359696  1.008
 912 opls_1136  61 ST   C01  65 -0.20110304 12.011
 913 opls_1137  61 ST   H02  65  0.10359697  1.008
 914 opls_1138  61 ST   H03  65  0.10359697  1.008
 915 opls_1139  61 ST   C04  65 -0.14310303 12.011
 916 opls_1140  61 ST   C05  65 -0.16450303 12.011
 917 opls_1141  61 ST   H06  65  0.15039697  1.008
 918 opls_1142  61 ST   H07  65  0.15039697  1.008
 919 opls_1143  61 ST   C08  65  0.47079697 12.011
 920 opls_1144  61 ST   O09  65 -0.46970303 15.999
 921 opls_1145  61 ST   O0A  65 -0.37860303 15.999
 922 opls_1146  61 ST   C0B  65  0.01369697 12.011
 923 opls_1147  61 ST   H0C  65  0.12039697  1.008
 924 opls_1148  61 ST   H0D  65  0.12039697  1.008
 925 opls_1149  61 ST   C0E  65 -0.21050303 12.011
 926 opls_1150  61 ST   H0F  65  0.10689697  1.008
 927 opls_1151  61 ST   H0G  65  0.10689697  1.008
 928 opls_1152  61 ST   C0H  65 -0.17690303 12.011
 929 opls_1153  61 ST   H0I  65  0.09539697  1.008
 930 opls_1154  61 ST   H0J  65  0.09539697  1.008
 931 opls_1155  61 ST   C0K  65 -0.18200303 12.011
 932 opls_1156  61 ST   H0M  65  0.09069697  1.008
 933 opls_1157  61 ST   H0N  65  0.09069697  1.008
 934 opls_1158  61 ST   C0O  65 -0.17810303 12.011
 935 opls_1159  61 ST   H0P  65  0.08999697  1.008
 936 opls_1160  61 ST   H0Q  65  0.08999697  1.008
 937 opls_1161  61 ST   C0R  65 -0.17550303 12.011
 938 opls_1162  61 ST   H0S  65  0.08789697  1.008
 939 opls_1163  61 ST   H0T  65  0.08789697  1.008
 940 opls_1164  61 ST   C0U  65 -0.17810303 12.011
 941 opls_1165  61 ST   H0V  65  0.08819697  1.008
 942 opls_1166  61 ST   H0W  65  0.08819697  1.008
 943 opls_1167  61 ST   C0X  66 -0.18000303 12.011
 944 opls_1168  61 ST   H0Y  66  0.09189697  1.008
 945 opls_1169  61 ST   H0Z  66  0.09189697  1.008
 946 opls_1170  61 ST   C10  66 -0.17800303 12.011
 947 opls_1171  61 ST   H11  66  0.08809697  1.008
 948 opls_1172  61 ST   H12  66  0.08809697  1.008
 949 opls_1173  61 ST   C13  66 -0.17850303 12.011
 950 opls_1174  61 ST   H14  66  0.08859697  1.008
 951 opls_1175  61 ST   H15  66  0.08859697  1.008
 952 opls_1176  61 ST   C16  66 -0.17980303 12.011
 953 opls_1177  61 ST   H17  66  0.09129697  1.008
 954 opls_1178  61 ST   H18  66  0.09129697  1.008
 955 opls_1179  61 ST   C19  66 -0.17840303 12.011
 956 opls_1180  61 ST   H1A  66  0.08869697  1.008
 957 opls_1181  61 ST   H1B  66  0.08869697  1.008
 958 opls_1182  61 ST   C1C  66 -0.17770303 12.011
 959 opls_1183  61 ST   H1D  66  0.08879697  1.008
 960 opls_1184  61 ST   H1E  66  0.08879697  1.008
 961 opls_1185  61 ST   C1F  66 -0.17950303 12.011
 962 opls_1186  61 ST   H1G  66  0.09049697  1.008
 963 opls_1187  61 ST   H1H  66  0.09049697  1.008
 964 opls_1188  61 ST   C1I  66 -0.18020303 12.011
 965 opls_1189  61 ST   H1J  66  0.08919697  1.008
 966 opls_1190  61 ST   H1K  66  0.08919697  1.008
 967 opls_1191  61 ST   C1M  66 -0.17960303 12.011
 968 opls_1192  61 ST   H1N  66  0.08959697  1.008
 969 opls_1193  61 ST   H1O  66  0.08959697  1.008
 970 opls_1194  61 ST   C1P  66 -0.18080303 12.011
 971 opls_1195  61 ST   H1Q  66  0.08849697  1.008
 972 opls_1196  61 ST   H1R  66  0.08849697  1.008
 973 opls_1197  61 ST   C1S  66 -0.23980303 12.011
 974 opls_1198  61 ST   H1T  66  0.08169697  1.008
 975 opls_1199  61 ST   H1U  66  0.08169697  1.008
 976 opls_1200  61 ST   H1V  67  0.08169697  1.008
 977 opls_1135  62 ST   H00  68  0.10359696  1.008
 978 opls_1136  62 ST   C01  68 -0.20110304 12.011
 979 opls_1137  62 ST   H02  68  0.10359697  1.008
 980 opls_1138  62 ST   H03  68  0.10359697  1.008
 981 opls_1139  62 ST   C04  68 -0.14310303 12.011
 982 opls_1140  62 ST   C05  68 -0.16450303 12.011
 983 opls_1141  62 ST   H06  68  0.15039697  1.008
 984 opls_1142  62 ST   H07  68  0.15039697  1.008
 985 opls_1143  62 ST   C08  68  0.47079697 12.011
 986 opls_1144  62 ST   O09  68 -0.46970303 15.999
 987 opls_1145  62 ST   O0A  68 -0.37860303 15.999
 988 opls_1146  62 ST   C0B  68  0.01369697 12.011
 989 opls_1147  62 ST   H0C  68  0.12039697  1.008
 990 opls_1148  62 ST   H0D  68  0.12039697  1.008
 991 opls_1149  62 ST   C0E  68 -0.21050303 12.011
 992 opls_1150  62 ST   H0F  68  0.10689697  1.008
 993 opls_1151  62 ST   H0G  68  0.10689697  1.008
 994 opls_1152  62 ST   C0H  68 -0.17690303 12.011
 995 opls_1153  62 ST   H0I  68  0.09539697  1.008
 996 opls_1154  62 ST   H0J  68  0.09539697  1.008
 997 opls_1155  62 ST   C0K  68 -0.18200303 12.011
 998 opls_1156  62 ST   H0M  68  0.09069697  1.008
 999 opls_1157  62 ST   H0N  68  0.09069697  1.008
1000 opls_1158  62 ST   C0O  68 -0.17810303 12.011
1001 opls_1159  62 ST   H0P  68  0.08999697  1.008
1002 opls_1160  62 ST   H0Q  68  0.08999697  1.008
1003 opls_1161  62 ST   C0R  68 -0.17550303 12.011
1004 opls_1162  62 ST   H0S  68  0.08789697  1.008
1005 opls_1163  62 ST   H0T  68  0.08789697  1.008
1006 opls_1164  62 ST   C0U  68 -0.17810303 12.011
1007 opls_1165  62 ST   H0V  68  0.08819697  1.008
1008 opls_1166  62 ST   H0W  68  0.08819697  1.008
1009 opls_1167  62 ST   C0X  69 -0.18000303 12.011
1010 opls_1168  62 ST   H0Y  69  0.09189697  1.008
1011 opls_1169  62 ST   H0Z  69  0.09189697  1.008
1012 opls_1170  62 ST   C10  69 -0.17800303 12.011
1013 opls_1171  62 ST   H11  69  0.08809697  1.008
1014 opls_1172  62 ST   H12  69  0.08809697  1.008
1015 opls_1173  62 ST   C13  69 -0.17850303 12.011
1016 opls_1174  62 ST   H14  69  0.08859697  1.008
1017 opls_1175  62 ST   H15  69  0.08859697  1.008
1018 opls_1176  62 ST   C16  69 -0.17980303 12.011
1019 opls_1177  62 ST   H17  69  0.09129697  1.008
1020 opls_1178  62 ST   H18  69  0.09129697  1.008
1021 opls_1179  62 ST   C19  69 -0.17840303 12.011
1022 opls_1180  62 ST   H1A  69  0.08869697  1.008
1023 opls_1181  62 ST   H1B  69  0.08869697  1.008
1024 opls_1182  62 ST   C1C  69 -0.17770303 12.011
1025 opls_1183  62 ST   H1D  69  0.08879697  1.008
1026 opls_1184  62 ST   H1E  69  0.08879697  1.008
1027 opls_1185  62 ST   C1F  69 -0.17950303 12.011
1028 opls_1186  62 ST   H1G  69  0.09049697  1.008
1029 opls_1187  62 ST   H1H  69  0.09049697  1.008
1030 opls_1188  62 ST   C1I  69 -0.18020303 12.011
1031 opls_1189  62 ST   H1J  69  0.08919697  1.008
1032 opls_1190  62 ST   H1K  69  0.08919697  1.008
1033 opls_1191  62 ST   C1M  69 -0.17960303 12.011
1034 opls_1192  62 ST   H1N  69  0.08959697  1.008
1035 opls_1193  62 ST   H1O  69  0.08959697  1.008
1036 opls_1194  62 ST   C1P  69 -0.18080303 12.011
1037 opls_1195  62 ST   H1Q  69  0.08849697  1.008
1038 opls_1196  62 ST   H1R  69  0.08849697  1.008
1039 opls_1197  62 ST   C1S  69 -0.23980303 12.011
1040 opls_1198  62 ST   H1T  69  0.08169697  1.008
1041 opls_1199  62 ST   H1U  69  0.08169697  1.008
1042 opls_1200  62 ST   H1V  70  0.08169697  1.008
1043 opls_1135  63 ST   H00  71  0.10359696  1.008
1044 opls_1136  63 ST   C01  71 -0.20110304 12.011
1045 opls_1137  63 ST   H02  71  0.10359697  1.008
1046 opls_1138  63 ST   H03  71  0.10359697  1.008
1047 opls_1139  63 ST   C04  71 -0.14310303 12.011
1048 opls_1140  63 ST   C05  71 -0.16450303 12.011
1049 opls_1141  63 ST   H06  71  0.15039697  1.008
1050 opls_1142  63 ST   H07  71  0.15039697  1.008
1051 opls_1143  63 ST   C08  71  0.47079697 12.011
1052 opls_1144  63 ST   O09  71 -0.46970303 15.999
1053 opls_1145  63 ST   O0A  71 -0.37860303 15.999
1054 opls_1146  63 ST   C0B  71  0.01369697 12.011
1055 opls_1147  63 ST   H0C  71  0.12039697  1.008
1056 opls_1148  63 ST   H0D  71  0.12039697  1.008
1057 opls_1149  63 ST   C0E  71 -0.21050303 12.011
1058 opls_1150  63 ST   H0F  71  0.10689697  1.008
1059 opls_1151  63 ST   H0G  71  0.10689697  1.008
1060 opls_1152  63 ST   C0H  71 -0.17690303 12.011
1061 opls_1153  63 ST   H0I  71  0.09539697  1.008
1062 opls_1154  63 ST   H0J  71  0.09539697  1.008
1063 opls_1155  63 ST   C0K  71 -0.18200303 12.011
1064 opls_1156  63 ST   H0M  71  0.09069697  1.008
1065 opls_1157  63 ST   H0N  71  0.09069697  1.008
1066 opls_1158  63 ST   C0O  71 -0.17810303 12.011
1067 opls_1159  63 ST   H0P  71  0.08999697  1.008
1068 opls_1160  63 ST   H0Q  71  0.08999697  1.008
1069 opls_1161  63 ST   C0R  71 -0.17550303 12.011
1070 opls_1162  63 ST   H0S  71  0.08789697  1.008
1071 opls_1163  63 ST   H0T  71  0.08789697  1.008
1072 opls_1164  63 ST   C0U  71 -0.17810303 12.011
1073 opls_1165  63 ST   H0V  71  0.08819697  1.008
1074 opls_1166  63 ST   H0W  71  0.08819697  1.008
1075 opls_1167  63 ST   C0X  72 -0.18000303 12.011
1076 opls_1168  63 ST   H0Y  72  0.09189697  1.008
1077 opls_1169  63 ST   H0Z  72  0.09189697  1.008
1078 opls_1170  63 ST   C10  72 -0.17800303 12.011
1079 opls_1171  63 ST   H11  72  0.08809697  1.008
1080 opls_1172  63 ST   H12  72  0.08809697  1.008
1081 opls_1173  63 ST   C13  72 -0.17850303 12.011
1082 opls_1174  63 ST   H14  72  0.08859697  1.008
1083 opls_1175  63 ST   H15  72  0.08859697  1.008
1084 opls_1176  63 ST   C16  72 -0.17980303 12.011
1085 opls_1177  63 ST   H17  72  0.09129697  1.008
1086 opls_1178  63 ST   H18  72  0.09129697  1.008
1087 opls_1179  63 ST   C19  72 -0.17840303 12.011
1088 opls_1180  63 ST   H1A  72  0.08869697  1.008
1089 opls_1181  63 ST   H1B  72  0.08869697  1.008
1090 opls_1182  63 ST   C1C  72 -0.17770303 12.011
1091 opls_1183  63 ST   H1D  72  0.08879697  1.008
1092 opls_1184  63 ST   H1E  72  0.08879697  1.008
1093 opls_1185  63 ST   C1F  72 -0.17950303 12.011
1094 opls_1186  63 ST   H1G  72  0.09049697  1.008
1095 opls_1187  63 ST   H1H  72  0.09049697  1.008
1096 opls_1188  63 ST   C1I  72 -0.18020303 12.011
1097 opls_1189  63 ST   H1J  72  0.08919697  1.008
1098 opls_1190  63 ST   H1K  72  0.08919697  1.008
1099 opls_1191  63 ST   C1M  72 -0.17960303 12.011
1100 opls_1192  63 ST   H1N  72  0.08959697  1.008
1101 opls_1193  63 ST   H1O  72  0.08959697  1.008
1102 opls_1194  63 ST   C1P  72 -0.18080303 12.011
1103 opls_1195  63 ST   H1Q  72  0.08849697  1.008
1104 opls_1196  63 ST   H1R  72  0.08849697  1.008
1105 opls_1197  63 ST   C1S  72 -0.23980303 12.011
1106 opls_1198  63 ST   H1T  72  0.08169697  1.008
1107 opls_1199  63 ST   H1U  72  0.08169697  1.008
1108 opls_1200  63 ST   H1V  73  0.08169697  1.008
1109 opls_1135  64 ST   H00  74  0.10359696  1.008
1110 opls_1136  64 ST   C01  74 -0.20110304 12.011
1111 opls_1137  64 ST   H02  74  0.10359697  1.008
1112 opls_1138  64 ST   H03  74  0.10359697  1.008
1113 opls_1139  64 ST   C04  74 -0.14310303 12.011
1114 opls_1140  64 ST   C05  74 -0.16450303 12.011
1115 opls_1141  64 ST   H06  74  0.15039697  1.008
1116 opls_1142  64 ST   H07  74  0.15039697  1.008
1117 opls_1143  64 ST   C08  74  0.47079697 12.011
1118 opls_1144  64 ST   O09  74 -0.46970303 15.999
1119 opls_1145  64 ST   O0A  74 -0.37860303 15.999
1120 opls_1146  64 ST   C0B  74  0.01369697 12.011
1121 opls_1147  64 ST   H0C  74  0.12039697  1.008
1122 opls_1148  64 ST   H0D  74  0.12039697  1.008
1123 opls_1149  64 ST   C0E  74 -0.21050303 12.011
1124 opls_1150  64 ST   H0F  74  0.10689697  1.008
1125 opls_1151  64 ST   H0G  74  0.10689697  1.008
1126 opls_1152  64 ST   C0H  74 -0.17690303 12.011
1127 opls_1153  64 ST   H0I  74  0.09539697  1.008
1128 opls_1154  64 ST   H0J  74  0.09539697  1.008
1129 opls_1155  64 ST   C0K  74 -0.18200303 12.011
1130 opls_1156  64 ST   H0M  74  0.09069697  1.008
1131 opls_1157  64 ST   H0N  74  0.09069697  1.008
1132 opls_1158  64 ST   C0O  74 -0.17810303 12.011
1133 opls_1159  64 ST   H0P  74  0.08999697  1.008
1134 opls_1160  64 ST   H0Q  74  0.08999697  1.008
1135 opls_1161  64 ST   C0R  74 -0.17550303 12.011
1136 opls_1162  64 ST   H0S  74  0.08789697  1.008
1137 opls_1163  64 ST   H0T  74  0.08789697  1.008
1138 opls_1164  64 ST   C0U  74 -0.17810303 12.011
1139 opls_1165  64 ST   H0V  74  0.08819697  1.008
1140 opls_1166  64 ST   H0W  74  0.08819697  1.008
1141 opls_1167  64 ST   C0X  75 -0.18000303 12.011
1142 opls_1168  64 ST   H0Y  75  0.09189697  1.008
1143 opls_1169  64 ST   H0Z  75  0.09189697  1.008
1144 opls_1170  64 ST   C10  75 -0.17800303 12.011
1145 opls_1171  64 ST   H11  75  0.08809697  1.008
1146 opls_1172  64 ST   H12  75  0.08809697  1.008
1147 opls_1173  64 ST   C13  75 -0.17850303 12.011
1148 opls_1174  64 ST   H14  75  0.08859697  1.008
1149 opls_1175  64 ST   H15  75  0.08859697  1.008
1150 opls_1176  64 ST   C16  75 -0.17980303 12.011
1151 opls_1177  64 ST   H17  75  0.09129697  1.008
1152 opls_1178  64 ST   H18  75  0.09129697  1.008
1153 opls_1179  64 ST   C19  75 -0.17840303 12.011
1154 opls_1180  64 ST   H1A  75  0.08869697  1.008
1155 opls_1181  64 ST   H1B  75  0.08869697  1.008
1156 opls_1182  64 ST   C1C  75 -0.17770303 12.011
1157 opls_1183  64 ST   H1D  75  0.08879697  1.008
1158 opls_1184  64 ST   H1E  75  0.08879697  1.008
1159 opls_1185  64 ST   C1F  75 -0.17950303 12.011
1160 opls_1186  64 ST   H1G  75  0.09049697  1.008
1161 opls_1187  64 ST   H1H  75  0.09049697  1.008
1162 opls_1188  64 ST   C1I  75 -0.18020303 12.011
1163 opls_1189  64 ST   H1J  75  0.08919697  1.008
1164 opls_1190  64 ST   H1K  75  0.08919697  1.008
1165 opls_1191  64 ST   C1M  75 -0.17960303 12.011
1166 opls_1192  64 ST   H1N  75  0.08959697  1.008
1167 opls_1193  64 ST   H1O  75  0.08959697  1.008
1168 opls_1194  64 ST   C1P  75 -0.18080303 12.011
1169 opls_1195  64 ST   H1Q  75  0.08849697  1.008
1170 opls_1196  64 ST   H1R  75  0.08849697  1.008
1171 opls_1197  64 ST   C1S  75 -0.23980303 12.011
1172 opls_1198  64 ST   H1T  75  0.08169697  1.008
1173 opls_1199  64 ST   H1U  75  0.08169697  1.008
1174 opls_1200  64 ST   H1V  76  0.08169697  1.008
1175 opls_1036  65 LA   H00  77      0.1018  1.008
1176 opls_1037  65 LA   C01  77     -0.1925 12.011
1177 opls_1038  65 LA   H02  77      0.1018  1.008
1178 opls_1039  65 LA   H03  77      0.1018  1.008
1179 opls_1040  65 LA   C04  77      -0.154 12.011
1180 opls_1041  65 LA   C05  77     -0.1693 12.011
1181 opls_1042  65 LA   H06  77       0.145  1.008
1182 opls_1043  65 LA   H07  77       0.145  1.008
1183 opls_1044  65 LA   C08  77      0.4759 12.011
1184 opls_1045  65 LA   O09  77     -0.4618 15.999
1185 opls_1046  65 LA   O0A  77     -0.3719 15.999
1186 opls_1047  65 LA   C0B  77      0.0179 12.011
1187 opls_1048  65 LA   H0C  77      0.1065  1.008
1188 opls_1049  65 LA   H0D  77      0.1065  1.008
1189 opls_1050  65 LA   C0E  77     -0.1807 12.011
1190 opls_1051  65 LA   H0F  77      0.1036  1.008
1191 opls_1052  65 LA   H0G  77      0.1036  1.008
1192 opls_1053  65 LA   C0H  77     -0.1746 12.011
1193 opls_1054  65 LA   H0I  77      0.0946  1.008
1194 opls_1055  65 LA   H0J  77      0.0946  1.008
1195 opls_1056  65 LA   C0K  77     -0.1762 12.011
1196 opls_1057  65 LA   H0M  77      0.0878  1.008
1197 opls_1058  65 LA   H0N  77      0.0878  1.008
1198 opls_1059  65 LA   C0O  77     -0.1732 12.011
1199 opls_1060  65 LA   H0P  77      0.0879  1.008
1200 opls_1061  65 LA   H0Q  77      0.0879  1.008
1201 opls_1062  65 LA   C0R  77     -0.1741 12.011
1202 opls_1063  65 LA   H0S  77      0.0886  1.008
1203 opls_1064  65 LA   H0T  77      0.0886  1.008
1204 opls_1065  65 LA   C0U  77     -0.1731 12.011
1205 opls_1066  65 LA   H0V  77      0.0876  1.008
1206 opls_1067  65 LA   H0W  77      0.0876  1.008
1207 opls_1068  65 LA   C0X  78     -0.1734 12.011
1208 opls_1069  65 LA   H0Y  78       0.087  1.008
1209 opls_1070  65 LA   H0Z  78       0.087  1.008
1210 opls_1071  65 LA   C10  78      -0.176 12.011
1211 opls_1072  65 LA   H11  78      0.0872  1.008
1212 opls_1073  65 LA   H12  78      0.0872  1.008
1213 opls_1074  65 LA   C13  78     -0.1769 12.011
1214 opls_1075  65 LA   H14  78      0.0865  1.008
1215 opls_1076  65 LA   H15  78      0.0865  1.008
1216 opls_1077  65 LA   C16  78     -0.1758 12.011
1217 opls_1078  65 LA   H17  78      0.0861  1.008
1218 opls_1079  65 LA   H18  78      0.0861  1.008
1219 opls_1080  65 LA   C19  78     -0.2355 12.011
1220 opls_1081  65 LA   H1A  78       0.081  1.008
1221 opls_1082  65 LA   H1B  78       0.081  1.008
1222 opls_1083  65 LA   H1C  78       0.081  1.008
1223 opls_1000  66 EH   H00  79  0.10189445  1.008
1224 opls_1001  66 EH   C01  79 -0.19260555 12.011
1225 opls_1002  66 EH   H02  79  0.10189445  1.008
1226 opls_1003  66 EH   H03  79  0.10189445  1.008
1227 opls_1004  66 EH   C04  79 -0.15320555 12.011
1228 opls_1005  66 EH   C05  79 -0.16930555 12.011
1229 opls_1006  66 EH   H06  79  0.14479445  1.008
1230 opls_1007  66 EH   H07  79  0.14479445  1.008
1231 opls_1008  66 EH   C08  79  0.47689445 12.011
1232 opls_1009  66 EH   O09  79 -0.46140555 15.999
1233 opls_1010  66 EH   O0A  79 -0.37160555 15.999
1234 opls_1011  66 EH   C0B  79  0.01739445 12.011
1235 opls_1012  66 EH   H0C  79  0.10599445  1.008
1236 opls_1013  66 EH   H0D  79  0.10599445  1.008
1237 opls_1014  66 EH   C0E  79 -0.11380555 12.011
1238 opls_1015  66 EH   H0F  79  0.10879445  1.008
1239 opls_1016  66 EH   C0G  79 -0.17230556 12.011
1240 opls_1017  66 EH   H0H  79  0.09059444  1.008
1241 opls_1018  66 EH   H0I  79  0.09059444  1.008
1242 opls_1019  66 EH   C0J  79 -0.23440556 12.011
1243 opls_1020  66 EH   H0K  79  0.08389444  1.008
1244 opls_1021  66 EH   H0M  79  0.08389444  1.008
1245 opls_1022  66 EH   H0N  79  0.08389444  1.008
1246 opls_1023  66 EH   C0O  79 -0.16680556 12.011
1247 opls_1024  66 EH   H0P  79  0.09399444  1.008
1248 opls_1025  66 EH   H0Q  79  0.09399444  1.008
1249 opls_1026  66 EH   C0R  79 -0.17620556 12.011
1250 opls_1027  66 EH   H0S  79  0.08869444  1.008
1251 opls_1028  66 EH   H0T  79  0.08869444  1.008
1252 opls_1029  66 EH   C0U  79 -0.17710556 12.011
1253 opls_1030  66 EH   H0V  79  0.08599444  1.008
1254 opls_1031  66 EH   H0W  79  0.08599444  1.008
1255 opls_1032  66 EH   C0X  80 -0.23570556 12.011
1256 opls_1033  66 EH   H0Y  80  0.08129444  1.008
1257 opls_1034  66 EH   H0Z  80  0.08129444  1.008
1258 opls_1035  66 EH   H10  80  0.08129444  1.008
1259 opls_1036  67 LA   H00  81      0.1018  1.008
1260 opls_1037  67 LA   C01  81     -0.1925 12.011
1261 opls_1038  67 LA   H02  81      0.1018  1.008
1262 opls_1039  67 LA   H03  81      0.1018  1.008
1263 opls_1040  67 LA   C04  81      -0.154 12.011
1264 opls_1041  67 LA   C05  81     -0.1693 12.011
1265 opls_1042  67 LA   H06  81       0.145  1.008
1266 opls_1043  67 LA   H07  81       0.145  1.008
1267 opls_1044  67 LA   C08  81      0.4759 12.011
1268 opls_1045  67 LA   O09  81     -0.4618 15.999
1269 opls_1046  67 LA   O0A  81     -0.3719 15.999
1270 opls_1047  67 LA   C0B  81      0.0179 12.011
1271 opls_1048  67 LA   H0C  81      0.1065  1.008
1272 opls_1049  67 LA   H0D  81      0.1065  1.008
1273 opls_1050  67 LA   C0E  81     -0.1807 12.011
1274 opls_1051  67 LA   H0F  81      0.1036  1.008
1275 opls_1052  67 LA   H0G  81      0.1036  1.008
1276 opls_1053  67 LA   C0H  81     -0.1746 12.011
1277 opls_1054  67 LA   H0I  81      0.0946  1.008
1278 opls_1055  67 LA   H0J  81      0.0946  1.008
1279 opls_1056  67 LA   C0K  81     -0.1762 12.011
1280 opls_1057  67 LA   H0M  81      0.0878  1.008
1281 opls_1058  67 LA   H0N  81      0.0878  1.008
1282 opls_1059  67 LA   C0O  81     -0.1732 12.011
1283 opls_1060  67 LA   H0P  81      0.0879  1.008
1284 opls_1061  67 LA   H0Q  81      0.0879  1.008
1285 opls_1062  67 LA   C0R  81     -0.1741 12.011
1286 opls_1063  67 LA   H0S  81      0.0886  1.008
1287 opls_1064  67 LA   H0T  81      0.0886  1.008
1288 opls_1065  67 LA   C0U  81     -0.1731 12.011
1289 opls_1066  67 LA   H0V  81      0.0876  1.008
1290 opls_1067  67 LA   H0W  81      0.0876  1.008
1291 opls_1068  67 LA   C0X  82     -0.1734 12.011
1292 opls_1069  67 LA   H0Y  82       0.087  1.008
1293 opls_1070  67 LA   H0Z  82       0.087  1.008
1294 opls_1071  67 LA   C10  82      -0.176 12.011
1295 opls_1072  67 LA   H11  82      0.0872  1.008
1296 opls_1073  67 LA   H12  82      0.0872  1.008
1297 opls_1074  67 LA   C13  82     -0.1769 12.011
1298 opls_1075  67 LA   H14  82      0.0865  1.008
1299 opls_1076  67 LA   H15  82      0.0865  1.008
1300 opls_1077  67 LA   C16  82     -0.1758 12.011
1301 opls_1078  67 LA   H17  82      0.0861  1.008
1302 opls_1079  67 LA   H18  82      0.0861  1.008
1303 opls_1080  67 LA   C19  82     -0.2355 12.011
1304 opls_1081  67 LA   H1A  82       0.081  1.008
1305 opls_1082  67 LA   H1B  82       0.081  1.008
1306 opls_1083  67 LA   H1C  82       0.081  1.008
1307 opls_1135  68 ST   H00  83  0.10359696  1.008
1308 opls_1136  68 ST   C01  83 -0.20110304 12.011
1309 opls_1137  68 ST   H02  83  0.10359697  1.008
1310 opls_1138  68 ST   H03  83  0.10359697  1.008
1311 opls_1139  68 ST   C04  83 -0.14310303 12.011
1312 opls_1140  68 ST   C05  83 -0.16450303 12.011
1313 opls_1141  68 ST   H06  83  0.15039697  1.008
1314 opls_1142  68 ST   H07  83  0.15039697  1.008
1315 opls_1143  68 ST   C08  83  0.47079697 12.011
1316 opls_1144  68 ST   O09  83 -0.46970303 15.999
1317 opls_1145  68 ST   O0A  83 -0.37860303 15.999
1318 opls_1146  68 ST   C0B  83  0.01369697 12.011
1319 opls_1147  68 ST   H0C  83  0.12039697  1.008
1320 opls_1148  68 ST   H0D  83  0.12039697  1.008
1321 opls_1149  68 ST   C0E  83 -0.21050303 12.011
1322 opls_1150  68 ST   H0F  83  0.10689697  1.008
1323 opls_1151  68 ST   H0G  83  0.10689697  1.008
1324 opls_1152  68 ST   C0H  83 -0.17690303 12.011
1325 opls_1153  68 ST   H0I  83  0.09539697  1.008
1326 opls_1154  68 ST   H0J  83  0.09539697  1.008
1327 opls_1155  68 ST   C0K  83 -0.18200303 12.011
1328 opls_1156  68 ST   H0M  83  0.09069697  1.008
1329 opls_1157  68 ST   H0N  83  0.09069697  1.008
1330 opls_1158  68 ST   C0O  83 -0.17810303 12.011
1331 opls_1159  68 ST   H0P  83  0.08999697  1.008
1332 opls_1160  68 ST   H0Q  83  0.08999697  1.008
1333 opls_1161  68 ST   C0R  83 -0.17550303 12.011
1334 opls_1162  68 ST   H0S  83  0.08789697  1.008
1335 opls_1163  68 ST   H0T  83  0.08789697  1.008
1336 opls_1164  68 ST   C0U  83 -0.17810303 12.011
1337 opls_1165  68 ST   H0V  83  0.08819697  1.008
1338 opls_1166  68 ST   H0W  83  0.08819697  1.008
1339 opls_1167  68 ST   C0X  84 -0.18000303 12.011
1340 opls_1168  68 ST   H0Y  84  0.09189697  1.008
1341 opls_1169  68 ST   H0Z  84  0.09189697  1.008
1342 opls_1170  68 ST   C10  84 -0.17800303 12.011
1343 opls_1171  68 ST   H11  84  0.08809697  1.008
1344 opls_1172  68 ST   H12  84  0.08809697  1.008
1345 opls_1173  68 ST   C13  84 -0.17850303 12.011
1346 opls_1174  68 ST   H14  84  0.08859697  1.008
1347 opls_1175  68 ST   H15  84  0.08859697  1.008
1348 opls_1176  68 ST   C16  84 -0.17980303 12.011
1349 opls_1177  68 ST   H17  84  0.09129697  1.008
1350 opls_1178  68 ST   H18  84  0.09129697  1.008
1351 opls_1179  68 ST   C19  84 -0.17840303 12.011
1352 opls_1180  68 ST   H1A  84  0.08869697  1.008
1353 opls_1181  68 ST   H1B  84  0.08869697  1.008
1354 opls_1182  68 ST   C1C  84 -0.17770303 12.011
1355 opls_1183  68 ST   H1D  84  0.08879697  1.008
1356 opls_1184  68 ST   H1E  84  0.08879697  1.008
1357 opls_1185  68 ST   C1F  84 -0.17950303 12.011
1358 opls_1186  68 ST   H1G  84  0.09049697  1.008
1359 opls_1187  68 ST   H1H  84  0.09049697  1.008
1360 opls_1188  68 ST   C1I  84 -0.18020303 12.011
1361 opls_1189  68 ST   H1J  84  0.08919697  1.008
1362 opls_1190  68 ST   H1K  84  0.08919697  1.008
1363 opls_1191  68 ST   C1M  84 -0.17960303 12.011
1364 opls_1192  68 ST   H1N  84  0.08959697  1.008
1365 opls_1193  68 ST   H1O  84  0.08959697  1.008
1366 opls_1194  68 ST   C1P  84 -0.18080303 12.011
1367 opls_1195  68 ST   H1Q  84  0.08849697  1.008
1368 opls_1196  68 ST   H1R  84  0.08849697  1.008
1369 opls_1197  68 ST   C1S  84 -0.23980303 12.011
1370 opls_1198  68 ST   H1T  84  0.08169697  1.008
1371 opls_1199  68 ST   H1U  84  0.08169697  1.008
1372 opls_1200  68 ST   H1V  85  0.08169697  1.008
1373 opls_1000  69 EH   H00  86  0.10189445  1.008
1374 opls_1001  69 EH   C01  86 -0.19260555 12.011
1375 opls_1002  69 EH   H02  86  0.10189445  1.008
1376 opls_1003  69 EH   H03  86  0.10189445  1.008
1377 opls_1004  69 EH   C04  86 -0.15320555 12.011
1378 opls_1005  69 EH   C05  86 -0.16930555 12.011
1379 opls_1006  69 EH   H06  86  0.14479445  1.008
1380 opls_1007  69 EH   H07  86  0.14479445  1.008
1381 opls_1008  69 EH   C08  86  0.47689445 12.011
1382 opls_1009  69 EH   O09  86 -0.46140555 15.999
1383 opls_1010  69 EH   O0A  86 -0.37160555 15.999
1384 opls_1011  69 EH   C0B  86  0.01739445 12.011
1385 opls_1012  69 EH   H0C  86  0.10599445  1.008
1386 opls_1013  69 EH   H0D  86  0.10599445  1.008
1387 opls_1014  69 EH   C0E  86 -0.11380555 12.011
1388 opls_1015  69 EH   H0F  86  0.10879445  1.008
1389 opls_1016  69 EH   C0G  86 -0.17230556 12.011
1390 opls_1017  69 EH   H0H  86  0.09059444  1.008
1391 opls_1018  69 EH   H0I  86  0.09059444  1.008
1392 opls_1019  69 EH   C0J  86 -0.23440556 12.011
1393 opls_1020  69 EH   H0K  86  0.08389444  1.008
1394 opls_1021  69 EH   H0M  86  0.08389444  1.008
1395 opls_1022  69 EH   H0N  86  0.08389444  1.008
1396 opls_1023  69 EH   C0O  86 -0.16680556 12.011
1397 opls_1024  69 EH   H0P  86  0.09399444  1.008
1398 opls_1025  69 EH   H0Q  86  0.09399444  1.008
1399 opls_1026  69 EH   C0R  86 -0.17620556 12.011
1400 opls_1027  69 EH   H0S  86  0.08869444  1.008
1401 opls_1028  69 EH   H0T  86  0.08869444  1.008
1402 opls_1029  69 EH   C0U  86 -0.17710556 12.011
1403 opls_1030  69 EH   H0V  86  0.08599444  1.008
1404 opls_1031  69 EH   H0W  86  0.08599444  1.008
1405 opls_1032  69 EH   C0X  87 -0.23570556 12.011
1406 opls_1033  69 EH   H0Y  87  0.08129444  1.008
1407 opls_1034  69 EH   H0Z  87  0.08129444  1.008
1408 opls_1035  69 EH   H10  87  0.08129444  1.008
1409 opls_1036  70 LA   H00  88      0.1018  1.008
1410 opls_1037  70 LA   C01  88     -0.1925 12.011
1411 opls_1038  70 LA   H02  88      0.1018  1.008
1412 opls_1039  70 LA   H03  88      0.1018  1.008
1413 opls_1040  70 LA   C04  88      -0.154 12.011
1414 opls_1041  70 LA   C05  88     -0.1693 12.011
1415 opls_1042  70 LA   H06  88       0.145  1.008
1416 opls_1043  70 LA   H07  88       0.145  1.008
1417 opls_1044  70 LA   C08  88      0.4759 12.011
1418 opls_1045  70 LA   O09  88     -0.4618 15.999
1419 opls_1046  70 LA   O0A  88     -0.3719 15.999
1420 opls_1047  70 LA   C0B  88      0.0179 12.011
1421 opls_1048  70 LA   H0C  88      0.1065  1.008
1422 opls_1049  70 LA   H0D  88      0.1065  1.008
1423 opls_1050  70 LA   C0E  88     -0.1807 12.011
1424 opls_1051  70 LA   H0F  88      0.1036  1.008
1425 opls_1052  70 LA   H0G  88      0.1036  1.008
1426 opls_1053  70 LA   C0H  88     -0.1746 12.011
1427 opls_1054  70 LA   H0I  88      0.0946  1.008
1428 opls_1055  70 LA   H0J  88      0.0946  1.008
1429 opls_1056  70 LA   C0K  88     -0.1762 12.011
1430 opls_1057  70 LA   H0M  88      0.0878  1.008
1431 opls_1058  70 LA   H0N  88      0.0878  1.008
1432 opls_1059  70 LA   C0O  88     -0.1732 12.011
1433 opls_1060  70 LA   H0P  88      0.0879  1.008
1434 opls_1061  70 LA   H0Q  88      0.0879  1.008
1435 opls_1062  70 LA   C0R  88     -0.1741 12.011
1436 opls_1063  70 LA   H0S  88      0.0886  1.008
1437 opls_1064  70 LA   H0T  88      0.0886  1.008
1438 opls_1065  70 LA   C0U  88     -0.1731 12.011
1439 opls_1066  70 LA   H0V  88      0.0876  1.008
1440 opls_1067  70 LA   H0W  88      0.0876  1.008
1441 opls_1068  70 LA   C0X  89     -0.1734 12.011
1442 opls_1069  70 LA   H0Y  89       0.087  1.008
1443 opls_1070  70 LA   H0Z  89       0.087  1.008
1444 opls_1071  70 LA   C10  89      -0.176 12.011
1445 opls_1072  70 LA   H11  89      0.0872  1.008
1446 opls_1073  70 LA   H12  89      0.0872  1.008
1447 opls_1074  70 LA   C13  89     -0.1769 12.011
1448 opls_1075  70 LA   H14  89      0.0865  1.008
1449 opls_1076  70 LA   H15  89      0.0865  1.008
1450 opls_1077  70 LA   C16  89     -0.1758 12.011
1451 opls_1078  70 LA   H17  89      0.0861  1.008
1452 opls_1079  70 LA   H18  89      0.0861  1.008
1453 opls_1080  70 LA   C19  89     -0.2355 12.011
1454 opls_1081  70 LA   H1A  89       0.081  1.008
1455 opls_1082  70 LA   H1B  89       0.081  1.008
1456 opls_1083  70 LA   H1C  89       0.081  1.008
1457 opls_1036  71 LA   H00  90      0.1018  1.008
1458 opls_1037  71 LA   C01  90     -0.1925 12.011
1459 opls_1038  71 LA   H02  90      0.1018  1.008
1460 opls_1039  71 LA   H03  90      0.1018  1.008
1461 opls_1040  71 LA   C04  90      -0.154 12.011
1462 opls_1041  71 LA   C05  90     -0.1693 12.011
1463 opls_1042  71 LA   H06  90       0.145  1.008
1464 opls_1043  71 LA   H07  90       0.145  1.008
1465 opls_1044  71 LA   C08  90      0.4759 12.011
1466 opls_1045  71 LA   O09  90     -0.4618 15.999
1467 opls_1046  71 LA   O0A  90     -0.3719 15.999
1468 opls_1047  71 LA   C0B  90      0.0179 12.011
1469 opls_1048  71 LA   H0C  90      0.1065  1.008
1470 opls_1049  71 LA   H0D  90      0.1065  1.008
1471 opls_1050  71 LA   C0E  90     -0.1807 12.011
1472 opls_1051  71 LA   H0F  90      0.1036  1.008
1473 opls_1052  71 LA   H0G  90      0.1036  1.008
1474 opls_1053  71 LA   C0H  90     -0.1746 12.011
1475 opls_1054  71 LA   H0I  90      0.0946  1.008
1476 opls_1055  71 LA   H0J  90      0.0946  1.008
1477 opls_1056  71 LA   C0K  90     -0.1762 12.011
1478 opls_1057  71 LA   H0M  90      0.0878  1.008
1479 opls_1058  71 LA   H0N  90      0.0878  1.008
1480 opls_1059  71 LA   C0O  90     -0.1732 12.011
1481 opls_1060  71 LA   H0P  90      0.0879  1.008
1482 opls_1061  71 LA   H0Q  90      0.0879  1.008
1483 opls_1062  71 LA   C0R  90     -0.1741 12.011
1484 opls_1063  71 LA   H0S  90      0.0886  1.008
1485 opls_1064  71 LA   H0T  90      0.0886  1.008
1486 opls_1065  71 LA   C0U  90     -0.1731 12.011
1487 opls_1066  71 LA   H0V  90      0.0876  1.008
1488 opls_1067  71 LA   H0W  90      0.0876  1.008
1489 opls_1068  71 LA   C0X  91     -0.1734 12.011
1490 opls_1069  71 LA   H0Y  91       0.087  1.008
1491 opls_1070  71 LA   H0Z  91       0.087  1.008
1492 opls_1071  71 LA   C10  91      -0.176 12.011
1493 opls_1072  71 LA   H11  91      0.0872  1.008
1494 opls_1073  71 LA   H12  91      0.0872  1.008
1495 opls_1074  71 LA   C13  91     -0.1769 12.011
1496 opls_1075  71 LA   H14  91      0.0865  1.008
1497 opls_1076  71 LA   H15  91      0.0865  1.008
1498 opls_1077  71 LA   C16  91     -0.1758 12.011
1499 opls_1078  71 LA   H17  91      0.0861  1.008
1500 opls_1079  71 LA   H18  91      0.0861  1.008
1501 opls_1080  71 LA   C19  91     -0.2355 12.011
1502 opls_1081  71 LA   H1A  91       0.081  1.008
1503 opls_1082  71 LA   H1B  91       0.081  1.008
1504 opls_1083  71 LA   H1C  91       0.081  1.008
1505 opls_1000  72 EH   H00  92  0.10189445  1.008
1506 opls_1001  72 EH   C01  92 -0.19260555 12.011
1507 opls_1002  72 EH   H02  92  0.10189445  1.008
1508 opls_1003  72 EH   H03  92  0.10189445  1.008
1509 opls_1004  72 EH   C04  92 -0.15320555 12.011
1510 opls_1005  72 EH   C05  92 -0.16930555 12.011
1511 opls_1006  72 EH   H06  92  0.14479445  1.008
1512 opls_1007  72 EH   H07  92  0.14479445  1.008
1513 opls_1008  72 EH   C08  92  0.47689445 12.011
1514 opls_1009  72 EH   O09  92 -0.46140555 15.999
1515 opls_1010  72 EH   O0A  92 -0.37160555 15.999
1516 opls_1011  72 EH   C0B  92  0.01739445 12.011
1517 opls_1012  72 EH   H0C  92  0.10599445  1.008
1518 opls_1013  72 EH   H0D  92  0.10599445  1.008
1519 opls_1014  72 EH   C0E  92 -0.11380555 12.011
1520 opls_1015  72 EH   H0F  92  0.10879445  1.008
1521 opls_1016  72 EH   C0G  92 -0.17230556 12.011
1522 opls_1017  72 EH   H0H  92  0.09059444  1.008
1523 opls_1018  72 EH   H0I  92  0.09059444  1.008
1524 opls_1019  72 EH   C0J  92 -0.23440556 12.011
1525 opls_1020  72 EH   H0K  92  0.08389444  1.008
1526 opls_1021  72 EH   H0M  92  0.08389444  1.008
1527 opls_1022  72 EH   H0N  92  0.08389444  1.008
1528 opls_1023  72 EH   C0O  92 -0.16680556 12.011
1529 opls_1024  72 EH   H0P  92  0.09399444  1.008
1530 opls_1025  72 EH   H0Q  92  0.09399444  1.008
1531 opls_1026  72 EH   C0R  92 -0.17620556 12.011
1532 opls_1027  72 EH   H0S  92  0.08869444  1.008
1533 opls_1028  72 EH   H0T  92  0.08869444  1.008
1534 opls_1029  72 EH   C0U  92 -0.17710556 12.011
1535 opls_1030  72 EH   H0V  92  0.08599444  1.008
1536 opls_1031  72 EH   H0W  92  0.08599444  1.008
1537 opls_1032  72 EH   C0X  93 -0.23570556 12.011
1538 opls_1033  72 EH   H0Y  93  0.08129444  1.008
1539 opls_1034  72 EH   H0Z  93  0.08129444  1.008
1540 opls_1035  72 EH   H10  93  0.08129444  1.008
1541 opls_1000  73 EH   H00  94  0.10189445  1.008
1542 opls_1001  73 EH   C01  94 -0.19260555 12.011
1543 opls_1002  73 EH   H02  94  0.10189445  1.008
1544 opls_1003  73 EH   H03  94  0.10189445  1.008
1545 opls_1004  73 EH   C04  94 -0.15320555 12.011
1546 opls_1005  73 EH   C05  94 -0.16930555 12.011
1547 opls_1006  73 EH   H06  94  0.14479445  1.008
1548 opls_1007  73 EH   H07  94  0.14479445  1.008
1549 opls_1008  73 EH   C08  94  0.47689445 12.011
1550 opls_1009  73 EH   O09  94 -0.46140555 15.999
1551 opls_1010  73 EH   O0A  94 -0.37160555 15.999
1552 opls_1011  73 EH   C0B  94  0.01739445 12.011
1553 opls_1012  73 EH   H0C  94  0.10599445  1.008
1554 opls_1013  73 EH   H0D  94  0.10599445  1.008
1555 opls_1014  73 EH   C0E  94 -0.11380555 12.011
1556 opls_1015  73 EH   H0F  94  0.10879445  1.008
1557 opls_1016  73 EH   C0G  94 -0.17230556 12.011
1558 opls_1017  73 EH   H0H  94  0.09059444  1.008
1559 opls_1018  73 EH   H0I  94  0.09059444  1.008
1560 opls_1019  73 EH   C0J  94 -0.23440556 12.011
1561 opls_1020  73 EH   H0K  94  0.08389444  1.008
1562 opls_1021  73 EH   H0M  94  0.08389444  1.008
1563 opls_1022  73 EH   H0N  94  0.08389444  1.008
1564 opls_1023  73 EH   C0O  94 -0.16680556 12.011
1565 opls_1024  73 EH   H0P  94  0.09399444  1.008
1566 opls_1025  73 EH   H0Q  94  0.09399444  1.008
1567 opls_1026  73 EH   C0R  94 -0.17620556 12.011
1568 opls_1027  73 EH   H0S  94  0.08869444  1.008
1569 opls_1028  73 EH   H0T  94  0.08869444  1.008
1570 opls_1029  73 EH   C0U  94 -0.17710556 12.011
1571 opls_1030  73 EH   H0V  94  0.08599444  1.008
1572 opls_1031  73 EH   H0W  94  0.08599444  1.008
1573 opls_1032  73 EH   C0X  95 -0.23570556 12.011
1574 opls_1033  73 EH   H0Y  95  0.08129444  1.008
1575 opls_1034  73 EH   H0Z  95  0.08129444  1.008
1576 opls_1035  73 EH   H10  95  0.08129444  1.008
1577 opls_1036  74 LA   H00  96      0.1018  1.008
1578 opls_1037  74 LA   C01  96     -0.1925 12.011
1579 opls_1038  74 LA   H02  96      0.1018  1.008
1580 opls_1039  74 LA   H03  96      0.1018  1.008
1581 opls_1040  74 LA   C04  96      -0.154 12.011
1582 opls_1041  74 LA   C05  96     -0.1693 12.011
1583 opls_1042  74 LA   H06  96       0.145  1.008
1584 opls_1043  74 LA   H07  96       0.145  1.008
1585 opls_1044  74 LA   C08  96      0.4759 12.011
1586 opls_1045  74 LA   O09  96     -0.4618 15.999
1587 opls_1046  74 LA   O0A  96     -0.3719 15.999
1588 opls_1047  74 LA   C0B  96      0.0179 12.011
1589 opls_1048  74 LA   H0C  96      0.1065  1.008
1590 opls_1049  74 LA   H0D  96      0.1065  1.008
1591 opls_1050  74 LA   C0E  96     -0.1807 12.011
1592 opls_1051  74 LA   H0F  96      0.1036  1.008
1593 opls_1052  74 LA   H0G  96      0.1036  1.008
1594 opls_1053  74 LA   C0H  96     -0.1746 12.011
1595 opls_1054  74 LA   H0I  96      0.0946  1.008
1596 opls_1055  74 LA   H0J  96      0.0946  1.008
1597 opls_1056  74 LA   C0K  96     -0.1762 12.011
1598 opls_1057  74 LA   H0M  96      0.0878  1.008
1599 opls_1058  74 LA   H0N  96      0.0878  1.008
1600 opls_1059  74 LA   C0O  96     -0.1732 12.011
1601 opls_1060  74 LA   H0P  96      0.0879  1.008
1602 opls_1061  74 LA   H0Q  96      0.0879  1.008
1603 opls_1062  74 LA   C0R  96     -0.1741 12.011
1604 opls_1063  74 LA   H0S  96      0.0886  1.008
1605 opls_1064  74 LA   H0T  96      0.0886  1.008
1606 opls_1065  74 LA   C0U  96     -0.1731 12.011
1607 opls_1066  74 LA   H0V  96      0.0876  1.008
1608 opls_1067  74 LA   H0W  96      0.0876  1.008
1609 opls_1068  74 LA   C0X  97     -0.1734 12.011
1610 opls_1069  74 LA   H0Y  97       0.087  1.008
1611 opls_1070  74 LA   H0Z  97       0.087  1.008
1612 opls_1071  74 LA   C10  97      -0.176 12.011
1613 opls_1072  74 LA   H11  97      0.0872  1.008
1614 opls_1073  74 LA   H12  97      0.0872  1.008
1615 opls_1074  74 LA   C13  97     -0.1769 12.011
1616 opls_1075  74 LA   H14  97      0.0865  1.008
1617 opls_1076  74 LA   H15  97      0.0865  1.008
1618 opls_1077  74 LA   C16  97     -0.1758 12.011
1619 opls_1078  74 LA   H17  97      0.0861  1.008
1620 opls_1079  74 LA   H18  97      0.0861  1.008
1621 opls_1080  74 LA   C19  97     -0.2355 12.011
1622 opls_1081  74 LA   H1A  97       0.081  1.008
1623 opls_1082  74 LA   H1B  97       0.081  1.008
1624 opls_1083  74 LA   H1C  97       0.081  1.008
1625 opls_1000  75 EH   H00  98  0.10189445  1.008
1626 opls_1001  75 EH   C01  98 -0.19260555 12.011
1627 opls_1002  75 EH   H02  98  0.10189445  1.008
1628 opls_1003  75 EH   H03  98  0.10189445  1.008
1629 opls_1004  75 EH   C04  98 -0.15320555 12.011
1630 opls_1005  75 EH   C05  98 -0.16930555 12.011
1631 opls_1006  75 EH   H06  98  0.14479445  1.008
1632 opls_1007  75 EH   H07  98  0.14479445  1.008
1633 opls_1008  75 EH   C08  98  0.47689445 12.011
1634 opls_1009  75 EH   O09  98 -0.46140555 15.999
1635 opls_1010  75 EH   O0A  98 -0.37160555 15.999
1636 opls_1011  75 EH   C0B  98  0.01739445 12.011
1637 opls_1012  75 EH   H0C  98  0.10599445  1.008
1638 opls_1013  75 EH   H0D  98  0.10599445  1.008
1639 opls_1014  75 EH   C0E  98 -0.11380555 12.011
1640 opls_1015  75 EH   H0F  98  0.10879445  1.008
1641 opls_1016  75 EH   C0G  98 -0.17230556 12.011
1642 opls_1017  75 EH   H0H  98  0.09059444  1.008
1643 opls_1018  75 EH   H0I  98  0.09059444  1.008
1644 opls_1019  75 EH   C0J  98 -0.23440556 12.011
1645 opls_1020  75 EH   H0K  98  0.08389444  1.008
1646 opls_1021  75 EH   H0M  98  0.08389444  1.008
1647 opls_1022  75 EH   H0N  98  0.08389444  1.008
1648 opls_1023  75 EH   C0O  98 -0.16680556 12.011
1649 opls_1024  75 EH   H0P  98  0.09399444  1.008
1650 opls_1025  75 EH   H0Q  98  0.09399444  1.008
1651 opls_1026  75 EH   C0R  98 -0.17620556 12.011
1652 opls_1027  75 EH   H0S  98  0.08869444  1.008
1653 opls_1028  75 EH   H0T  98  0.08869444  1.008
1654 opls_1029  75 EH   C0U  98 -0.17710556 12.011
1655 opls_1030  75 EH   H0V  98  0.08599444  1.008
1656 opls_1031  75 EH   H0W  98  0.08599444  1.008
1657 opls_1032  75 EH   C0X  99 -0.23570556 12.011
1658 opls_1033  75 EH   H0Y  99  0.08129444  1.008
1659 opls_1034  75 EH   H0Z  99  0.08129444  1.008
1660 opls_1035  75 EH   H10  99  0.08129444  1.008
1661 opls_1000  76 EH   H00 100  0.10189445  1.008
1662 opls_1001  76 EH   C01 100 -0.19260555 12.011
1663 opls_1002  76 EH   H02 100  0.10189445  1.008
1664 opls_1003  76 EH   H03 100  0.10189445  1.008
1665 opls_1004  76 EH   C04 100 -0.15320555 12.011
1666 opls_1005  76 EH   C05 100 -0.16930555 12.011
1667 opls_1006  76 EH   H06 100  0.14479445  1.008
1668 opls_1007  76 EH   H07 100  0.14479445  1.008
1669 opls_1008  76 EH   C08 100  0.47689445 12.011
1670 opls_1009  76 EH   O09 100 -0.46140555 15.999
1671 opls_1010  76 EH   O0A 100 -0.37160555 15.999
1672 opls_1011  76 EH   C0B 100  0.01739445 12.011
1673 opls_1012  76 EH   H0C 100  0.10599445  1.008
1674 opls_1013  76 EH   H0D 100  0.10599445  1.008
1675 opls_1014  76 EH   C0E 100 -0.11380555 12.011
1676 opls_1015  76 EH   H0F 100  0.10879445  1.008
1677 opls_1016  76 EH   C0G 100 -0.17230556 12.011
1678 opls_1017  76 EH   H0H 100  0.09059444  1.008
1679 opls_1018  76 EH   H0I 100  0.09059444  1.008
1680 opls_1019  76 EH   C0J 100 -0.23440556 12.011
1681 opls_1020  76 EH   H0K 100  0.08389444  1.008
1682 opls_1021  76 EH   H0M 100  0.08389444  1.008
1683 opls_1022  76 EH   H0N 100  0.08389444  1.008
1684 opls_1023  76 EH   C0O 100 -0.16680556 12.011
1685 opls_1024  76 EH   H0P 100  0.09399444  1.008
1686 opls_1025  76 EH   H0Q 100  0.09399444  1.008
1687 opls_1026  76 EH   C0R 100 -0.17620556 12.011
1688 opls_1027  76 EH   H0S 100  0.08869444  1.008
1689 opls_1028  76 EH   H0T 100  0.08869444  1.008
1690 opls_1029  76 EH   C0U 100 -0.17710556 12.011
1691 opls_1030  76 EH   H0V 100  0.08599444  1.008
1692 opls_1031  76 EH   H0W 100  0.08599444  1.008
1693 opls_1032  76 EH   C0X 101 -0.23570556 12.011
1694 opls_1033  76 EH   H0Y 101  0.08129444  1.008
1695 opls_1034  76 EH   H0Z 101  0.08129444  1.008
1696 opls_1035  76 EH   H10 101  0.08129444  1.008
1697 opls_1000  77 EH   H00 102  0.10189445  1.008
1698 opls_1001  77 EH   C01 102 -0.19260555 12.011
1699 opls_1002  77 EH   H02 102  0.10189445  1.008
1700 opls_1003  77 EH   H03 102  0.10189445  1.008
1701 opls_1004  77 EH   C04 102 -0.15320555 12.011
1702 opls_1005  77 EH   C05 102 -0.16930555 12.011
1703 opls_1006  77 EH   H06 102  0.14479445  1.008
1704 opls_1007  77 EH   H07 102  0.14479445  1.008
1705 opls_1008  77 EH   C08 102  0.47689445 12.011
1706 opls_1009  77 EH   O09 102 -0.46140555 15.999
1707 opls_1010  77 EH   O0A 102 -0.37160555 15.999
1708 opls_1011  77 EH   C0B 102  0.01739445 12.011
1709 opls_1012  77 EH   H0C 102  0.10599445  1.008
1710 opls_1013  77 EH   H0D 102  0.10599445  1.008
1711 opls_1014  77 EH   C0E 102 -0.11380555 12.011
1712 opls_1015  77 EH   H0F 102  0.10879445  1.008
1713 opls_1016  77 EH   C0G 102 -0.17230556 12.011
1714 opls_1017  77 EH   H0H 102  0.09059444  1.008
1715 opls_1018  77 EH   H0I 102  0.09059444  1.008
1716 opls_1019  77 EH   C0J 102 -0.23440556 12.011
1717 opls_1020  77 EH   H0K 102  0.08389444  1.008
1718 opls_1021  77 EH   H0M 102  0.08389444  1.008
1719 opls_1022  77 EH   H0N 102  0.08389444  1.008
1720 opls_1023  77 EH   C0O 102 -0.16680556 12.011
1721 opls_1024  77 EH   H0P 102  0.09399444  1.008
1722 opls_1025  77 EH   H0Q 102  0.09399444  1.008
1723 opls_1026  77 EH   C0R 102 -0.17620556 12.011
1724 opls_1027  77 EH   H0S 102  0.08869444  1.008
1725 opls_1028  77 EH   H0T 102  0.08869444  1.008
1726 opls_1029  77 EH   C0U 102 -0.17710556 12.011
1727 opls_1030  77 EH   H0V 102  0.08599444  1.008
1728 opls_1031  77 EH   H0W 102  0.08599444  1.008
1729 opls_1032  77 EH   C0X 103 -0.23570556 12.011
1730 opls_1033  77 EH   H0Y 103  0.08129444  1.008
1731 opls_1034  77 EH   H0Z 103  0.08129444  1.008
1732 opls_1035  77 EH   H10 103  0.08129444  1.008
1733 opls_1036  78 LA   H00 104      0.1018  1.008
1734 opls_1037  78 LA   C01 104     -0.1925 12.011
1735 opls_1038  78 LA   H02 104      0.1018  1.008
1736 opls_1039  78 LA   H03 104      0.1018  1.008
1737 opls_1040  78 LA   C04 104      -0.154 12.011
1738 opls_1041  78 LA   C05 104     -0.1693 12.011
1739 opls_1042  78 LA   H06 104       0.145  1.008
1740 opls_1043  78 LA   H07 104       0.145  1.008
1741 opls_1044  78 LA   C08 104      0.4759 12.011
1742 opls_1045  78 LA   O09 104     -0.4618 15.999
1743 opls_1046  78 LA   O0A 104     -0.3719 15.999
1744 opls_1047  78 LA   C0B 104      0.0179 12.011
1745 opls_1048  78 LA   H0C 104      0.1065  1.008
1746 opls_1049  78 LA   H0D 104      0.1065  1.008
1747 opls_1050  78 LA   C0E 104     -0.1807 12.011
1748 opls_1051  78 LA   H0F 104      0.1036  1.008
1749 opls_1052  78 LA   H0G 104      0.1036  1.008
1750 opls_1053  78 LA   C0H 104     -0.1746 12.011
1751 opls_1054  78 LA   H0I 104      0.0946  1.008
1752 opls_1055  78 LA   H0J 104      0.0946  1.008
1753 opls_1056  78 LA   C0K 104     -0.1762 12.011
1754 opls_1057  78 LA   H0M 104      0.0878  1.008
1755 opls_1058  78 LA   H0N 104      0.0878  1.008
1756 opls_1059  78 LA   C0O 104     -0.1732 12.011
1757 opls_1060  78 LA   H0P 104      0.0879  1.008
1758 opls_1061  78 LA   H0Q 104      0.0879  1.008
1759 opls_1062  78 LA   C0R 104     -0.1741 12.011
1760 opls_1063  78 LA   H0S 104      0.0886  1.008
1761 opls_1064  78 LA   H0T 104      0.0886  1.008
1762 opls_1065  78 LA   C0U 104     -0.1731 12.011
1763 opls_1066  78 LA   H0V 104      0.0876  1.008
1764 opls_1067  78 LA   H0W 104      0.0876  1.008
1765 opls_1068  78 LA   C0X 105     -0.1734 12.011
1766 opls_1069  78 LA   H0Y 105       0.087  1.008
1767 opls_1070  78 LA   H0Z 105       0.087  1.008
1768 opls_1071  78 LA   C10 105      -0.176 12.011
1769 opls_1072  78 LA   H11 105      0.0872  1.008
1770 opls_1073  78 LA   H12 105      0.0872  1.008
1771 opls_1074  78 LA   C13 105     -0.1769 12.011
1772 opls_1075  78 LA   H14 105      0.0865  1.008
1773 opls_1076  78 LA   H15 105      0.0865  1.008
1774 opls_1077  78 LA   C16 105     -0.1758 12.011
1775 opls_1078  78 LA   H17 105      0.0861  1.008
1776 opls_1079  78 LA   H18 105      0.0861  1.008
1777 opls_1080  78 LA   C19 105     -0.2355 12.011
1778 opls_1081  78 LA   H1A 105       0.081  1.008
1779 opls_1082  78 LA   H1B 105       0.081  1.008
1780 opls_1083  78 LA   H1C 105       0.081  1.008
1781 opls_1036  79 LA   H00 106      0.1018  1.008
1782 opls_1037  79 LA   C01 106     -0.1925 12.011
1783 opls_1038  79 LA   H02 106      0.1018  1.008
1784 opls_1039  79 LA   H03 106      0.1018  1.008
1785 opls_1040  79 LA   C04 106      -0.154 12.011
1786 opls_1041  79 LA   C05 106     -0.1693 12.011
1787 opls_1042  79 LA   H06 106       0.145  1.008
1788 opls_1043  79 LA   H07 106       0.145  1.008
1789 opls_1044  79 LA   C08 106      0.4759 12.011
1790 opls_1045  79 LA   O09 106     -0.4618 15.999
1791 opls_1046  79 LA   O0A 106     -0.3719 15.999
1792 opls_1047  79 LA   C0B 106      0.0179 12.011
1793 opls_1048  79 LA   H0C 106      0.1065  1.008
1794 opls_1049  79 LA   H0D 106      0.1065  1.008
1795 opls_1050  79 LA   C0E 106     -0.1807 12.011
1796 opls_1051  79 LA   H0F 106      0.1036  1.008
1797 opls_1052  79 LA   H0G 106      0.1036  1.008
1798 opls_1053  79 LA   C0H 106     -0.1746 12.011
1799 opls_1054  79 LA   H0I 106      0.0946  1.008
1800 opls_1055  79 LA   H0J 106      0.0946  1.008
1801 opls_1056  79 LA   C0K 106     -0.1762 12.011
1802 opls_1057  79 LA   H0M 106      0.0878  1.008
1803 opls_1058  79 LA   H0N 106      0.0878  1.008
1804 opls_1059  79 LA   C0O 106     -0.1732 12.011
1805 opls_1060  79 LA   H0P 106      0.0879  1.008
1806 opls_1061  79 LA   H0Q 106      0.0879  1.008
1807 opls_1062  79 LA   C0R 106     -0.1741 12.011
1808 opls_1063  79 LA   H0S 106      0.0886  1.008
1809 opls_1064  79 LA   H0T 106      0.0886  1.008
1810 opls_1065  79 LA   C0U 106     -0.1731 12.011
1811 opls_1066  79 LA   H0V 106      0.0876  1.008
1812 opls_1067  79 LA   H0W 106      0.0876  1.008
1813 opls_1068  79 LA   C0X 107     -0.1734 12.011
1814 opls_1069  79 LA   H0Y 107       0.087  1.008
1815 opls_1070  79 LA   H0Z 107       0.087  1.008
1816 opls_1071  79 LA   C10 107      -0.176 12.011
1817 opls_1072  79 LA   H11 107      0.0872  1.008
1818 opls_1073  79 LA   H12 107      0.0872  1.008
1819 opls_1074  79 LA   C13 107     -0.1769 12.011
1820 opls_1075  79 LA   H14 107      0.0865  1.008
1821 opls_1076  79 LA   H15 107      0.0865  1.008
1822 opls_1077  79 LA   C16 107     -0.1758 12.011
1823 opls_1078  79 LA   H17 107      0.0861  1.008
1824 opls_1079  79 LA   H18 107      0.0861  1.008
1825 opls_1080  79 LA   C19 107     -0.2355 12.011
1826 opls_1081  79 LA   H1A 107       0.081  1.008
1827 opls_1082  79 LA   H1B 107       0.081  1.008
1828 opls_1083  79 LA   H1C 107       0.081  1.008
1829 opls_1000  80 EH   H00 108  0.10189445  1.008
1830 opls_1001  80 EH   C01 108 -0.19260555 12.011
1831 opls_1002  80 EH   H02 108  0.10189445  1.008
1832 opls_1003  80 EH   H03 108  0.10189445  1.008
1833 opls_1004  80 EH   C04 108 -0.15320555 12.011
1834 opls_1005  80 EH   C05 108 -0.16930555 12.011
1835 opls_1006  80 EH   H06 108  0.14479445  1.008
1836 opls_1007  80 EH   H07 108  0.14479445  1.008
1837 opls_1008  80 EH   C08 108  0.47689445 12.011
1838 opls_1009  80 EH   O09 108 -0.46140555 15.999
1839 opls_1010  80 EH   O0A 108 -0.37160555 15.999
1840 opls_1011  80 EH   C0B 108  0.01739445 12.011
1841 opls_1012  80 EH   H0C 108  0.10599445  1.008
1842 opls_1013  80 EH   H0D 108  0.10599445  1.008
1843 opls_1014  80 EH   C0E 108 -0.11380555 12.011
1844 opls_1015  80 EH   H0F 108  0.10879445  1.008
1845 opls_1016  80 EH   C0G 108 -0.17230556 12.011
1846 opls_1017  80 EH   H0H 108  0.09059444  1.008
1847 opls_1018  80 EH   H0I 108  0.09059444  1.008
1848 opls_1019  80 EH   C0J 108 -0.23440556 12.011
1849 opls_1020  80 EH   H0K 108  0.08389444  1.008
1850 opls_1021  80 EH   H0M 108  0.08389444  1.008
1851 opls_1022  80 EH   H0N 108  0.08389444  1.008
1852 opls_1023  80 EH   C0O 108 -0.16680556 12.011
1853 opls_1024  80 EH   H0P 108  0.09399444  1.008
1854 opls_1025  80 EH   H0Q 108  0.09399444  1.008
1855 opls_1026  80 EH   C0R 108 -0.17620556 12.011
1856 opls_1027  80 EH   H0S 108  0.08869444  1.008
1857 opls_1028  80 EH   H0T 108  0.08869444  1.008
1858 opls_1029  80 EH   C0U 108 -0.17710556 12.011
1859 opls_1030  80 EH   H0V 108  0.08599444  1.008
1860 opls_1031  80 EH   H0W 108  0.08599444  1.008
1861 opls_1032  80 EH   C0X 109 -0.23570556 12.011
1862 opls_1033  80 EH   H0Y 109  0.08129444  1.008
1863 opls_1034  80 EH   H0Z 109  0.08129444  1.008
1864 opls_1035  80 EH   H10 109  0.08129444  1.008
1865 opls_1135  81 ST   H00 110  0.10359696  1.008
1866 opls_1136  81 ST   C01 110 -0.20110304 12.011
1867 opls_1137  81 ST   H02 110  0.10359697  1.008
1868 opls_1138  81 ST   H03 110  0.10359697  1.008
1869 opls_1139  81 ST   C04 110 -0.14310303 12.011
1870 opls_1140  81 ST   C05 110 -0.16450303 12.011
1871 opls_1141  81 ST   H06 110  0.15039697  1.008
1872 opls_1142  81 ST   H07 110  0.15039697  1.008
1873 opls_1143  81 ST   C08 110  0.47079697 12.011
1874 opls_1144  81 ST   O09 110 -0.46970303 15.999
1875 opls_1145  81 ST   O0A 110 -0.37860303 15.999
1876 opls_1146  81 ST   C0B 110  0.01369697 12.011
1877 opls_1147  81 ST   H0C 110  0.12039697  1.008
1878 opls_1148  81 ST   H0D 110  0.12039697  1.008
1879 opls_1149  81 ST   C0E 110 -0.21050303 12.011
1880 opls_1150  81 ST   H0F 110  0.10689697  1.008
1881 opls_1151  81 ST   H0G 110  0.10689697  1.008
1882 opls_1152  81 ST   C0H 110 -0.17690303 12.011
1883 opls_1153  81 ST   H0I 110  0.09539697  1.008
1884 opls_1154  81 ST   H0J 110  0.09539697  1.008
1885 opls_1155  81 ST   C0K 110 -0.18200303 12.011
1886 opls_1156  81 ST   H0M 110  0.09069697  1.008
1887 opls_1157  81 ST   H0N 110  0.09069697  1.008
1888 opls_1158  81 ST   C0O 110 -0.17810303 12.011
1889 opls_1159  81 ST   H0P 110  0.08999697  1.008
1890 opls_1160  81 ST   H0Q 110  0.08999697  1.008
1891 opls_1161  81 ST   C0R 110 -0.17550303 12.011
1892 opls_1162  81 ST   H0S 110  0.08789697  1.008
1893 opls_1163  81 ST   H0T 110  0.08789697  1.008
1894 opls_1164  81 ST   C0U 110 -0.17810303 12.011
1895 opls_1165  81 ST   H0V 110  0.08819697  1.008
1896 opls_1166  81 ST   H0W 110  0.08819697  1.008
1897 opls_1167  81 ST   C0X 111 -0.18000303 12.011
1898 opls_1168  81 ST   H0Y 111  0.09189697  1.008
1899 opls_1169  81 ST   H0Z 111  0.09189697  1.008
1900 opls_1170  81 ST   C10 111 -0.17800303 12.011
1901 opls_1171  81 ST   H11 111  0.08809697  1.008
1902 opls_1172  81 ST   H12 111  0.08809697  1.008
1903 opls_1173  81 ST   C13 111 -0.17850303 12.011
1904 opls_1174  81 ST   H14 111  0.08859697  1.008
1905 opls_1175  81 ST   H15 111  0.08859697  1.008
1906 opls_1176  81 ST   C16 111 -0.17980303 12.011
1907 opls_1177  81 ST   H17 111  0.09129697  1.008
1908 opls_1178  81 ST   H18 111  0.09129697  1.008
1909 opls_1179  81 ST   C19 111 -0.17840303 12.011
1910 opls_1180  81 ST   H1A 111  0.08869697  1.008
1911 opls_1181  81 ST   H1B 111  0.08869697  1.008
1912 opls_1182  81 ST   C1C 111 -0.17770303 12.011
1913 opls_1183  81 ST   H1D 111  0.08879697  1.008
1914 opls_1184  81 ST   H1E 111  0.08879697  1.008
1915 opls_1185  81 ST   C1F 111 -0.17950303 12.011
1916 opls_1186  81 ST   H1G 111  0.09049697  1.008
1917 opls_1187  81 ST   H1H 111  0.09049697  1.008
1918 opls_1188  81 ST   C1I 111 -0.18020303 12.011
1919 opls_1189  81 ST   H1J 111  0.08919697  1.008
1920 opls_1190  81 ST   H1K 111  0.08919697  1.008
1921 opls_1191  81 ST   C1M 111 -0.17960303 12.011
1922 opls_1192  81 ST   H1N 111  0.08959697  1.008
1923 opls_1193  81 ST   H1O 111  0.08959697  1.008
1924 opls_1194  81 ST   C1P 111 -0.18080303 12.011
1925 opls_1195  81 ST   H1Q 111  0.08849697  1.008
1926 opls_1196  81 ST   H1R 111  0.08849697  1.008
1927 opls_1197  81 ST   C1S 111 -0.23980303 12.011
1928 opls_1198  81 ST   H1T 111  0.08169697  1.008
1929 opls_1199  81 ST   H1U 111  0.08169697  1.008
1930 opls_1200  81 ST   H1V 112  0.08169697  1.008
1931 opls_1135  82 ST   H00 113  0.10359696  1.008
1932 opls_1136  82 ST   C01 113 -0.20110304 12.011
1933 opls_1137  82 ST   H02 113  0.10359697  1.008
1934 opls_1138  82 ST   H03 113  0.10359697  1.008
1935 opls_1139  82 ST   C04 113 -0.14310303 12.011
1936 opls_1140  82 ST   C05 113 -0.16450303 12.011
1937 opls_1141  82 ST   H06 113  0.15039697  1.008
1938 opls_1142  82 ST   H07 113  0.15039697  1.008
1939 opls_1143  82 ST   C08 113  0.47079697 12.011
1940 opls_1144  82 ST   O09 113 -0.46970303 15.999
1941 opls_1145  82 ST   O0A 113 -0.37860303 15.999
1942 opls_1146  82 ST   C0B 113  0.01369697 12.011
1943 opls_1147  82 ST   H0C 113  0.12039697  1.008
1944 opls_1148  82 ST   H0D 113  0.12039697  1.008
1945 opls_1149  82 ST   C0E 113 -0.21050303 12.011
1946 opls_1150  82 ST   H0F 113  0.10689697  1.008
1947 opls_1151  82 ST   H0G 113  0.10689697  1.008
1948 opls_1152  82 ST   C0H 113 -0.17690303 12.011
1949 opls_1153  82 ST   H0I 113  0.09539697  1.008
1950 opls_1154  82 ST   H0J 113  0.09539697  1.008
1951 opls_1155  82 ST   C0K 113 -0.18200303 12.011
1952 opls_1156  82 ST   H0M 113  0.09069697  1.008
1953 opls_1157  82 ST   H0N 113  0.09069697  1.008
1954 opls_1158  82 ST   C0O 113 -0.17810303 12.011
1955 opls_1159  82 ST   H0P 113  0.08999697  1.008
1956 opls_1160  82 ST   H0Q 113  0.08999697  1.008
1957 opls_1161  82 ST   C0R 113 -0.17550303 12.011
1958 opls_1162  82 ST   H0S 113  0.08789697  1.008
1959 opls_1163  82 ST   H0T 113  0.08789697  1.008
1960 opls_1164  82 ST   C0U 113 -0.17810303 12.011
1961 opls_1165  82 ST   H0V 113  0.08819697  1.008
1962 opls_1166  82 ST   H0W 113  0.08819697  1.008
1963 opls_1167  82 ST   C0X 114 -0.18000303 12.011
1964 opls_1168  82 ST   H0Y 114  0.09189697  1.008
1965 opls_1169  82 ST   H0Z 114  0.09189697  1.008
1966 opls_1170  82 ST   C10 114 -0.17800303 12.011
1967 opls_1171  82 ST   H11 114  0.08809697  1.008
1968 opls_1172  82 ST   H12 114  0.08809697  1.008
1969 opls_1173  82 ST   C13 114 -0.17850303 12.011
1970 opls_1174  82 ST   H14 114  0.08859697  1.008
1971 opls_1175  82 ST   H15 114  0.08859697  1.008
1972 opls_1176  82 ST   C16 114 -0.17980303 12.011
1973 opls_1177  82 ST   H17 114  0.09129697  1.008
1974 opls_1178  82 ST   H18 114  0.09129697  1.008
1975 opls_1179  82 ST   C19 114 -0.17840303 12.011
1976 opls_1180  82 ST   H1A 114  0.08869697  1.008
1977 opls_1181  82 ST   H1B 114  0.08869697  1.008
1978 opls_1182  82 ST   C1C 114 -0.17770303 12.011
1979 opls_1183  82 ST   H1D 114  0.08879697  1.008
1980 opls_1184  82 ST   H1E 114  0.08879697  1.008
1981 opls_1185  82 ST   C1F 114 -0.17950303 12.011
1982 opls_1186  82 ST   H1G 114  0.09049697  1.008
1983 opls_1187  82 ST   H1H 114  0.09049697  1.008
1984 opls_1188  82 ST   C1I 114 -0.18020303 12.011
1985 opls_1189  82 ST   H1J 114  0.08919697  1.008
1986 opls_1190  82 ST   H1K 114  0.08919697  1.008
1987 opls_1191  82 ST   C1M 114 -0.17960303 12.011
1988 opls_1192  82 ST   H1N 114  0.08959697  1.008
1989 opls_1193  82 ST   H1O 114  0.08959697  1.008
1990 opls_1194  82 ST   C1P 114 -0.18080303 12.011
1991 opls_1195  82 ST   H1Q 114  0.08849697  1.008
1992 opls_1196  82 ST   H1R 114  0.08849697  1.008
1993 opls_1197  82 ST   C1S 114 -0.23980303 12.011
1994 opls_1198  82 ST   H1T 114  0.08169697  1.008
1995 opls_1199  82 ST   H1U 114  0.08169697  1.008
1996 opls_1200  82 ST   H1V 115  0.08169697  1.008
1997 opls_1036  83 LA   H00 116      0.1018  1.008
1998 opls_1037  83 LA   C01 116     -0.1925 12.011
1999 opls_1038  83 LA   H02 116      0.1018  1.008
2000 opls_1039  83 LA   H03 116      0.1018  1.008
2001 opls_1040  83 LA   C04 116      -0.154 12.011
2002 opls_1041  83 LA   C05 116     -0.1693 12.011
2003 opls_1042  83 LA   H06 116       0.145  1.008
2004 opls_1043  83 LA   H07 116       0.145  1.008
2005 opls_1044  83 LA   C08 116      0.4759 12.011
2006 opls_1045  83 LA   O09 116     -0.4618 15.999
2007 opls_1046  83 LA   O0A 116     -0.3719 15.999
2008 opls_1047  83 LA   C0B 116      0.0179 12.011
2009 opls_1048  83 LA   H0C 116      0.1065  1.008
2010 opls_1049  83 LA   H0D 116      0.1065  1.008
2011 opls_1050  83 LA   C0E 116     -0.1807 12.011
2012 opls_1051  83 LA   H0F 116      0.1036  1.008
2013 opls_1052  83 LA   H0G 116      0.1036  1.008
2014 opls_1053  83 LA   C0H 116     -0.1746 12.011
2015 opls_1054  83 LA   H0I 116      0.0946  1.008
2016 opls_1055  83 LA   H0J 116      0.0946  1.008
2017 opls_1056  83 LA   C0K 116     -0.1762 12.011
2018 opls_1057  83 LA   H0M 116      0.0878  1.008
2019 opls_1058  83 LA   H0N 116      0.0878  1.008
2020 opls_1059  83 LA   C0O 116     -0.1732 12.011
2021 opls_1060  83 LA   H0P 116      0.0879  1.008
2022 opls_1061  83 LA   H0Q 116      0.0879  1.008
2023 opls_1062  83 LA   C0R 116     -0.1741 12.011
2024 opls_1063  83 LA   H0S 116      0.0886  1.008
2025 opls_1064  83 LA   H0T 116      0.0886  1.008
2026 opls_1065  83 LA   C0U 116     -0.1731 12.011
2027 opls_1066  83 LA   H0V 116      0.0876  1.008
2028 opls_1067  83 LA   H0W 116      0.0876  1.008
2029 opls_1068  83 LA   C0X 117     -0.1734 12.011
2030 opls_1069  83 LA   H0Y 117       0.087  1.008
2031 opls_1070  83 LA   H0Z 117       0.087  1.008
2032 opls_1071  83 LA   C10 117      -0.176 12.011
2033 opls_1072  83 LA   H11 117      0.0872  1.008
2034 opls_1073  83 LA   H12 117      0.0872  1.008
2035 opls_1074  83 LA   C13 117     -0.1769 12.011
2036 opls_1075  83 LA   H14 117      0.0865  1.008
2037 opls_1076  83 LA   H15 117      0.0865  1.008
2038 opls_1077  83 LA   C16 117     -0.1758 12.011
2039 opls_1078  83 LA   H17 117      0.0861  1.008
2040 opls_1079  83 LA   H18 117      0.0861  1.008
2041 opls_1080  83 LA   C19 117     -0.2355 12.011
2042 opls_1081  83 LA   H1A 117       0.081  1.008
2043 opls_1082  83 LA   H1B 117       0.081  1.008
2044 opls_1083  83 LA   H1C 117       0.081  1.008
2045 opls_1135  84 ST   H00 118  0.10359696  1.008
2046 opls_1136  84 ST   C01 118 -0.20110304 12.011
2047 opls_1137  84 ST   H02 118  0.10359697  1.008
2048 opls_1138  84 ST   H03 118  0.10359697  1.008
2049 opls_1139  84 ST   C04 118 -0.14310303 12.011
2050 opls_1140  84 ST   C05 118 -0.16450303 12.011
2051 opls_1141  84 ST   H06 118  0.15039697  1.008
2052 opls_1142  84 ST   H07 118  0.15039697  1.008
2053 opls_1143  84 ST   C08 118  0.47079697 12.011
2054 opls_1144  84 ST   O09 118 -0.46970303 15.999
2055 opls_1145  84 ST   O0A 118 -0.37860303 15.999
2056 opls_1146  84 ST   C0B 118  0.01369697 12.011
2057 opls_1147  84 ST   H0C 118  0.12039697  1.008
2058 opls_1148  84 ST   H0D 118  0.12039697  1.008
2059 opls_1149  84 ST   C0E 118 -0.21050303 12.011
2060 opls_1150  84 ST   H0F 118  0.10689697  1.008
2061 opls_1151  84 ST   H0G 118  0.10689697  1.008
2062 opls_1152  84 ST   C0H 118 -0.17690303 12.011
2063 opls_1153  84 ST   H0I 118  0.09539697  1.008
2064 opls_1154  84 ST   H0J 118  0.09539697  1.008
2065 opls_1155  84 ST   C0K 118 -0.18200303 12.011
2066 opls_1156  84 ST   H0M 118  0.09069697  1.008
2067 opls_1157  84 ST   H0N 118  0.09069697  1.008
2068 opls_1158  84 ST   C0O 118 -0.17810303 12.011
2069 opls_1159  84 ST   H0P 118  0.08999697  1.008
2070 opls_1160  84 ST   H0Q 118  0.08999697  1.008
2071 opls_1161  84 ST   C0R 118 -0.17550303 12.011
2072 opls_1162  84 ST   H0S 118  0.08789697  1.008
2073 opls_1163  84 ST   H0T 118  0.08789697  1.008
2074 opls_1164  84 ST   C0U 118 -0.17810303 12.011
2075 opls_1165  84 ST   H0V 118  0.08819697  1.008
2076 opls_1166  84 ST   H0W 118  0.08819697  1.008
2077 opls_1167  84 ST   C0X 119 -0.18000303 12.011
2078 opls_1168  84 ST   H0Y 119  0.09189697  1.008
2079 opls_1169  84 ST   H0Z 119  0.09189697  1.008
2080 opls_1170  84 ST   C10 119 -0.17800303 12.011
2081 opls_1171  84 ST   H11 119  0.08809697  1.008
2082 opls_1172  84 ST   H12 119  0.08809697  1.008
2083 opls_1173  84 ST   C13 119 -0.17850303 12.011
2084 opls_1174  84 ST   H14 119  0.08859697  1.008
2085 opls_1175  84 ST   H15 119  0.08859697  1.008
2086 opls_1176  84 ST   C16 119 -0.17980303 12.011
2087 opls_1177  84 ST   H17 119  0.09129697  1.008
2088 opls_1178  84 ST   H18 119  0.09129697  1.008
2089 opls_1179  84 ST   C19 119 -0.17840303 12.011
2090 opls_1180  84 ST   H1A 119  0.08869697  1.008
2091 opls_1181  84 ST   H1B 119  0.08869697  1.008
2092 opls_1182  84 ST   C1C 119 -0.17770303 12.011
2093 opls_1183  84 ST   H1D 119  0.08879697  1.008
2094 opls_1184  84 ST   H1E 119  0.08879697  1.008
2095 opls_1185  84 ST   C1F 119 -0.17950303 12.011
2096 opls_1186  84 ST   H1G 119  0.09049697  1.008
2097 opls_1187  84 ST   H1H 119  0.09049697  1.008
2098 opls_1188  84 ST   C1I 119 -0.18020303 12.011
2099 opls_1189  84 ST   H1J 119  0.08919697  1.008
2100 opls_1190  84 ST   H1K 119  0.08919697  1.008
2101 opls_1191  84 ST   C1M 119 -0.17960303 12.011
2102 opls_1192  84 ST   H1N 119  0.08959697  1.008
2103 opls_1193  84 ST   H1O 119  0.08959697  1.008
2104 opls_1194  84 ST   C1P 119 -0.18080303 12.011
2105 opls_1195  84 ST   H1Q 119  0.08849697  1.008
2106 opls_1196  84 ST   H1R 119  0.08849697  1.008
2107 opls_1197  84 ST   C1S 119 -0.23980303 12.011
2108 opls_1198  84 ST   H1T 119  0.08169697  1.008
2109 opls_1199  84 ST   H1U 119  0.08169697  1.008
2110 opls_1200  84 ST   H1V 120  0.08169697  1.008
2111 opls_1135  85 ST   H00 121  0.10359696  1.008
2112 opls_1136  85 ST   C01 121 -0.20110304 12.011
2113 opls_1137  85 ST   H02 121  0.10359697  1.008
2114 opls_1138  85 ST   H03 121  0.10359697  1.008
2115 opls_1139  85 ST   C04 121 -0.14310303 12.011
2116 opls_1140  85 ST   C05 121 -0.16450303 12.011
2117 opls_1141  85 ST   H06 121  0.15039697  1.008
2118 opls_1142  85 ST   H07 121  0.15039697  1.008
2119 opls_1143  85 ST   C08 121  0.47079697 12.011
2120 opls_1144  85 ST   O09 121 -0.46970303 15.999
2121 opls_1145  85 ST   O0A 121 -0.37860303 15.999
2122 opls_1146  85 ST   C0B 121  0.01369697 12.011
2123 opls_1147  85 ST   H0C 121  0.12039697  1.008
2124 opls_1148  85 ST   H0D 121  0.12039697  1.008
2125 opls_1149  85 ST   C0E 121 -0.21050303 12.011
2126 opls_1150  85 ST   H0F 121  0.10689697  1.008
2127 opls_1151  85 ST   H0G 121  0.10689697  1.008
2128 opls_1152  85 ST   C0H 121 -0.17690303 12.011
2129 opls_1153  85 ST   H0I 121  0.09539697  1.008
2130 opls_1154  85 ST   H0J 121  0.09539697  1.008
2131 opls_1155  85 ST   C0K 121 -0.18200303 12.011
2132 opls_1156  85 ST   H0M 121  0.09069697  1.008
2133 opls_1157  85 ST   H0N 121  0.09069697  1.008
2134 opls_1158  85 ST   C0O 121 -0.17810303 12.011
2135 opls_1159  85 ST   H0P 121  0.08999697  1.008
2136 opls_1160  85 ST   H0Q 121  0.08999697  1.008
2137 opls_1161  85 ST   C0R 121 -0.17550303 12.011
2138 opls_1162  85 ST   H0S 121  0.08789697  1.008
2139 opls_1163  85 ST   H0T 121  0.08789697  1.008
2140 opls_1164  85 ST   C0U 121 -0.17810303 12.011
2141 opls_1165  85 ST   H0V 121  0.08819697  1.008
2142 opls_1166  85 ST   H0W 121  0.08819697  1.008
2143 opls_1167  85 ST   C0X 122 -0.18000303 12.011
2144 opls_1168  85 ST   H0Y 122  0.09189697  1.008
2145 opls_1169  85 ST   H0Z 122  0.09189697  1.008
2146 opls_1170  85 ST   C10 122 -0.17800303 12.011
2147 opls_1171  85 ST   H11 122  0.08809697  1.008
2148 opls_1172  85 ST   H12 122  0.08809697  1.008
2149 opls_1173  85 ST   C13 122 -0.17850303 12.011
2150 opls_1174  85 ST   H14 122  0.08859697  1.008
2151 opls_1175  85 ST   H15 122  0.08859697  1.008
2152 opls_1176  85 ST   C16 122 -0.17980303 12.011
2153 opls_1177  85 ST   H17 122  0.09129697  1.008
2154 opls_1178  85 ST   H18 122  0.09129697  1.008
2155 opls_1179  85 ST   C19 122 -0.17840303 12.011
2156 opls_1180  85 ST   H1A 122  0.08869697  1.008
2157 opls_1181  85 ST   H1B 122  0.08869697  1.008
2158 opls_1182  85 ST   C1C 122 -0.17770303 12.011
2159 opls_1183  85 ST   H1D 122  0.08879697  1.008
2160 opls_1184  85 ST   H1E 122  0.08879697  1.008
2161 opls_1185  85 ST   C1F 122 -0.17950303 12.011
2162 opls_1186  85 ST   H1G 122  0.09049697  1.008
2163 opls_1187  85 ST   H1H 122  0.09049697  1.008
2164 opls_1188  85 ST   C1I 122 -0.18020303 12.011
2165 opls_1189  85 ST   H1J 122  0.08919697  1.008
2166 opls_1190  85 ST   H1K 122  0.08919697  1.008
2167 opls_1191  85 ST   C1M 122 -0.17960303 12.011
2168 opls_1192  85 ST   H1N 122  0.08959697  1.008
2169 opls_1193  85 ST   H1O 122  0.08959697  1.008
2170 opls_1194  85 ST   C1P 122 -0.18080303 12.011
2171 opls_1195  85 ST   H1Q 122  0.08849697  1.008
2172 opls_1196  85 ST   H1R 122  0.08849697  1.008
2173 opls_1197  85 ST   C1S 122 -0.23980303 12.011
2174 opls_1198  85 ST   H1T 122  0.08169697  1.008
2175 opls_1199  85 ST   H1U 122  0.08169697  1.008
2176 opls_1200  85 ST   H1V 123  0.08169697  1.008
2177 opls_1000  86 EH   H00 124  0.10189445  1.008
2178 opls_1001  86 EH   C01 124 -0.19260555 12.011
2179 opls_1002  86 EH   H02 124  0.10189445  1.008
2180 opls_1003  86 EH   H03 124  0.10189445  1.008
2181 opls_1004  86 EH   C04 124 -0.15320555 12.011
2182 opls_1005  86 EH   C05 124 -0.16930555 12.011
2183 opls_1006  86 EH   H06 124  0.14479445  1.008
2184 opls_1007  86 EH   H07 124  0.14479445  1.008
2185 opls_1008  86 EH   C08 124  0.47689445 12.011
2186 opls_1009  86 EH   O09 124 -0.46140555 15.999
2187 opls_1010  86 EH   O0A 124 -0.37160555 15.999
2188 opls_1011  86 EH   C0B 124  0.01739445 12.011
2189 opls_1012  86 EH   H0C 124  0.10599445  1.008
2190 opls_1013  86 EH   H0D 124  0.10599445  1.008
2191 opls_1014  86 EH   C0E 124 -0.11380555 12.011
2192 opls_1015  86 EH   H0F 124  0.10879445  1.008
2193 opls_1016  86 EH   C0G 124 -0.17230556 12.011
2194 opls_1017  86 EH   H0H 124  0.09059444  1.008
2195 opls_1018  86 EH   H0I 124  0.09059444  1.008
2196 opls_1019  86 EH   C0J 124 -0.23440556 12.011
2197 opls_1020  86 EH   H0K 124  0.08389444  1.008
2198 opls_1021  86 EH   H0M 124  0.08389444  1.008
2199 opls_1022  86 EH   H0N 124  0.08389444  1.008
2200 opls_1023  86 EH   C0O 124 -0.16680556 12.011
2201 opls_1024  86 EH   H0P 124  0.09399444  1.008
2202 opls_1025  86 EH   H0Q 124  0.09399444  1.008
2203 opls_1026  86 EH   C0R 124 -0.17620556 12.011
2204 opls_1027  86 EH   H0S 124  0.08869444  1.008
2205 opls_1028  86 EH   H0T 124  0.08869444  1.008
2206 opls_1029  86 EH   C0U 124 -0.17710556 12.011
2207 opls_1030  86 EH   H0V 124  0.08599444  1.008
2208 opls_1031  86 EH   H0W 124  0.08599444  1.008
2209 opls_1032  86 EH   C0X 125 -0.23570556 12.011
2210 opls_1033  86 EH   H0Y 125  0.08129444  1.008
2211 opls_1034  86 EH   H0Z 125  0.08129444  1.008
2212 opls_1035  86 EH   H10 125  0.08129444  1.008
2213 opls_1000  87 EH   H00 126  0.10189445  1.008
2214 opls_1001  87 EH   C01 126 -0.19260555 12.011
2215 opls_1002  87 EH   H02 126  0.10189445  1.008
2216 opls_1003  87 EH   H03 126  0.10189445  1.008
2217 opls_1004  87 EH   C04 126 -0.15320555 12.011
2218 opls_1005  87 EH   C05 126 -0.16930555 12.011
2219 opls_1006  87 EH   H06 126  0.14479445  1.008
2220 opls_1007  87 EH   H07 126  0.14479445  1.008
2221 opls_1008  87 EH   C08 126  0.47689445 12.011
2222 opls_1009  87 EH   O09 126 -0.46140555 15.999
2223 opls_1010  87 EH   O0A 126 -0.37160555 15.999
2224 opls_1011  87 EH   C0B 126  0.01739445 12.011
2225 opls_1012  87 EH   H0C 126  0.10599445  1.008
2226 opls_1013  87 EH   H0D 126  0.10599445  1.008
2227 opls_1014  87 EH   C0E 126 -0.11380555 12.011
2228 opls_1015  87 EH   H0F 126  0.10879445  1.008
2229 opls_1016  87 EH   C0G 126 -0.17230556 12.011
2230 opls_1017  87 EH   H0H 126  0.09059444  1.008
2231 opls_1018  87 EH   H0I 126  0.09059444  1.008
2232 opls_1019  87 EH   C0J 126 -0.23440556 12.011
2233 opls_1020  87 EH   H0K 126  0.08389444  1.008
2234 opls_1021  87 EH   H0M 126  0.08389444  1.008
2235 opls_1022  87 EH   H0N 126  0.08389444  1.008
2236 opls_1023  87 EH   C0O 126 -0.16680556 12.011
2237 opls_1024  87 EH   H0P 126  0.09399444  1.008
2238 opls_1025  87 EH   H0Q 126  0.09399444  1.008
2239 opls_1026  87 EH   C0R 126 -0.17620556 12.011
2240 opls_1027  87 EH   H0S 126  0.08869444  1.008
2241 opls_1028  87 EH   H0T 126  0.08869444  1.008
2242 opls_1029  87 EH   C0U 126 -0.17710556 12.011
2243 opls_1030  87 EH   H0V 126  0.08599444  1.008
2244 opls_1031  87 EH   H0W 126  0.08599444  1.008
2245 opls_1032  87 EH   C0X 127 -0.23570556 12.011
2246 opls_1033  87 EH   H0Y 127  0.08129444  1.008
2247 opls_1034  87 EH   H0Z 127  0.08129444  1.008
2248 opls_1035  87 EH   H10 127  0.08129444  1.008
2249 opls_1000  88 EH   H00 128  0.10189445  1.008
2250 opls_1001  88 EH   C01 128 -0.19260555 12.011
2251 opls_1002  88 EH   H02 128  0.10189445  1.008
2252 opls_1003  88 EH   H03 128  0.10189445  1.008
2253 opls_1004  88 EH   C04 128 -0.15320555 12.011
2254 opls_1005  88 EH   C05 128 -0.16930555 12.011
2255 opls_1006  88 EH   H06 128  0.14479445  1.008
2256 opls_1007  88 EH   H07 128  0.14479445  1.008
2257 opls_1008  88 EH   C08 128  0.47689445 12.011
2258 opls_1009  88 EH   O09 128 -0.46140555 15.999
2259 opls_1010  88 EH   O0A 128 -0.37160555 15.999
2260 opls_1011  88 EH   C0B 128  0.01739445 12.011
2261 opls_1012  88 EH   H0C 128  0.10599445  1.008
2262 opls_1013  88 EH   H0D 128  0.10599445  1.008
2263 opls_1014  88 EH   C0E 128 -0.11380555 12.011
2264 opls_1015  88 EH   H0F 128  0.10879445  1.008
2265 opls_1016  88 EH   C0G 128 -0.17230556 12.011
2266 opls_1017  88 EH   H0H 128  0.09059444  1.008
2267 opls_1018  88 EH   H0I 128  0.09059444  1.008
2268 opls_1019  88 EH   C0J 128 -0.23440556 12.011
2269 opls_1020  88 EH   H0K 128  0.08389444  1.008
2270 opls_1021  88 EH   H0M 128  0.08389444  1.008
2271 opls_1022  88 EH   H0N 128  0.08389444  1.008
2272 opls_1023  88 EH   C0O 128 -0.16680556 12.011
2273 opls_1024  88 EH   H0P 128  0.09399444  1.008
2274 opls_1025  88 EH   H0Q 128  0.09399444  1.008
2275 opls_1026  88 EH   C0R 128 -0.17620556 12.011
2276 opls_1027  88 EH   H0S 128  0.08869444  1.008
2277 opls_1028  88 EH   H0T 128  0.08869444  1.008
2278 opls_1029  88 EH   C0U 128 -0.17710556 12.011
2279 opls_1030  88 EH   H0V 128  0.08599444  1.008
2280 opls_1031  88 EH   H0W 128  0.08599444  1.008
2281 opls_1032  88 EH   C0X 129 -0.23570556 12.011
2282 opls_1033  88 EH   H0Y 129  0.08129444  1.008
2283 opls_1034  88 EH   H0Z 129  0.08129444  1.008
2284 opls_1035  88 EH   H10 129  0.08129444  1.008
2285 opls_1036  89 LA   H00 130      0.1018  1.008
2286 opls_1037  89 LA   C01 130     -0.1925 12.011
2287 opls_1038  89 LA   H02 130      0.1018  1.008
2288 opls_1039  89 LA   H03 130      0.1018  1.008
2289 opls_1040  89 LA   C04 130      -0.154 12.011
2290 opls_1041  89 LA   C05 130     -0.1693 12.011
2291 opls_1042  89 LA   H06 130       0.145  1.008
2292 opls_1043  89 LA   H07 130       0.145  1.008
2293 opls_1044  89 LA   C08 130      0.4759 12.011
2294 opls_1045  89 LA   O09 130     -0.4618 15.999
2295 opls_1046  89 LA   O0A 130     -0.3719 15.999
2296 opls_1047  89 LA   C0B 130      0.0179 12.011
2297 opls_1048  89 LA   H0C 130      0.1065  1.008
2298 opls_1049  89 LA   H0D 130      0.1065  1.008
2299 opls_1050  89 LA   C0E 130     -0.1807 12.011
2300 opls_1051  89 LA   H0F 130      0.1036  1.008
2301 opls_1052  89 LA   H0G 130      0.1036  1.008
2302 opls_1053  89 LA   C0H 130     -0.1746 12.011
2303 opls_1054  89 LA   H0I 130      0.0946  1.008
2304 opls_1055  89 LA   H0J 130      0.0946  1.008
2305 opls_1056  89 LA   C0K 130     -0.1762 12.011
2306 opls_1057  89 LA   H0M 130      0.0878  1.008
2307 opls_1058  89 LA   H0N 130      0.0878  1.008
2308 opls_1059  89 LA   C0O 130     -0.1732 12.011
2309 opls_1060  89 LA   H0P 130      0.0879  1.008
2310 opls_1061  89 LA   H0Q 130      0.0879  1.008
2311 opls_1062  89 LA   C0R 130     -0.1741 12.011
2312 opls_1063  89 LA   H0S 130      0.0886  1.008
2313 opls_1064  89 LA   H0T 130      0.0886  1.008
2314 opls_1065  89 LA   C0U 130     -0.1731 12.011
2315 opls_1066  89 LA   H0V 130      0.0876  1.008
2316 opls_1067  89 LA   H0W 130      0.0876  1.008
2317 opls_1068  89 LA   C0X 131     -0.1734 12.011
2318 opls_1069  89 LA   H0Y 131       0.087  1.008
2319 opls_1070  89 LA   H0Z 131       0.087  1.008
2320 opls_1071  89 LA   C10 131      -0.176 12.011
2321 opls_1072  89 LA   H11 131      0.0872  1.008
2322 opls_1073  89 LA   H12 131      0.0872  1.008
2323 opls_1074  89 LA   C13 131     -0.1769 12.011
2324 opls_1075  89 LA   H14 131      0.0865  1.008
2325 opls_1076  89 LA   H15 131      0.0865  1.008
2326 opls_1077  89 LA   C16 131     -0.1758 12.011
2327 opls_1078  89 LA   H17 131      0.0861  1.008
2328 opls_1079  89 LA   H18 131      0.0861  1.008
2329 opls_1080  89 LA   C19 131     -0.2355 12.011
2330 opls_1081  89 LA   H1A 131       0.081  1.008
2331 opls_1082  89 LA   H1B 131       0.081  1.008
2332 opls_1083  89 LA   H1C 131       0.081  1.008
2333 opls_1000  90 EH   H00 132  0.10189445  1.008
2334 opls_1001  90 EH   C01 132 -0.19260555 12.011
2335 opls_1002  90 EH   H02 132  0.10189445  1.008
2336 opls_1003  90 EH   H03 132  0.10189445  1.008
2337 opls_1004  90 EH   C04 132 -0.15320555 12.011
2338 opls_1005  90 EH   C05 132 -0.16930555 12.011
2339 opls_1006  90 EH   H06 132  0.14479445  1.008
2340 opls_1007  90 EH   H07 132  0.14479445  1.008
2341 opls_1008  90 EH   C08 132  0.47689445 12.011
2342 opls_1009  90 EH   O09 132 -0.46140555 15.999
2343 opls_1010  90 EH   O0A 132 -0.37160555 15.999
2344 opls_1011  90 EH   C0B 132  0.01739445 12.011
2345 opls_1012  90 EH   H0C 132  0.10599445  1.008
2346 opls_1013  90 EH   H0D 132  0.10599445  1.008
2347 opls_1014  90 EH   C0E 132 -0.11380555 12.011
2348 opls_1015  90 EH   H0F 132  0.10879445  1.008
2349 opls_1016  90 EH   C0G 132 -0.17230556 12.011
2350 opls_1017  90 EH   H0H 132  0.09059444  1.008
2351 opls_1018  90 EH   H0I 132  0.09059444  1.008
2352 opls_1019  90 EH   C0J 132 -0.23440556 12.011
2353 opls_1020  90 EH   H0K 132  0.08389444  1.008
2354 opls_1021  90 EH   H0M 132  0.08389444  1.008
2355 opls_1022  90 EH   H0N 132  0.08389444  1.008
2356 opls_1023  90 EH   C0O 132 -0.16680556 12.011
2357 opls_1024  90 EH   H0P 132  0.09399444  1.008
2358 opls_1025  90 EH   H0Q 132  0.09399444  1.008
2359 opls_1026  90 EH   C0R 132 -0.17620556 12.011
2360 opls_1027  90 EH   H0S 132  0.08869444  1.008
2361 opls_1028  90 EH   H0T 132  0.08869444  1.008
2362 opls_1029  90 EH   C0U 132 -0.17710556 12.011
2363 opls_1030  90 EH   H0V 132  0.08599444  1.008
2364 opls_1031  90 EH   H0W 132  0.08599444  1.008
2365 opls_1032  90 EH   C0X 133 -0.23570556 12.011
2366 opls_1033  90 EH   H0Y 133  0.08129444  1.008
2367 opls_1034  90 EH   H0Z 133  0.08129444  1.008
2368 opls_1035  90 EH   H10 133  0.08129444  1.008
2369 opls_1000  91 EH   H00 134  0.10189445  1.008
2370 opls_1001  91 EH   C01 134 -0.19260555 12.011
2371 opls_1002  91 EH   H02 134  0.10189445  1.008
2372 opls_1003  91 EH   H03 134  0.10189445  1.008
2373 opls_1004  91 EH   C04 134 -0.15320555 12.011
2374 opls_1005  91 EH   C05 134 -0.16930555 12.011
2375 opls_1006  91 EH   H06 134  0.14479445  1.008
2376 opls_1007  91 EH   H07 134  0.14479445  1.008
2377 opls_1008  91 EH   C08 134  0.47689445 12.011
2378 opls_1009  91 EH   O09 134 -0.46140555 15.999
2379 opls_1010  91 EH   O0A 134 -0.37160555 15.999
2380 opls_1011  91 EH   C0B 134  0.01739445 12.011
2381 opls_1012  91 EH   H0C 134  0.10599445  1.008
2382 opls_1013  91 EH   H0D 134  0.10599445  1.008
2383 opls_1014  91 EH   C0E 134 -0.11380555 12.011
2384 opls_1015  91 EH   H0F 134  0.10879445  1.008
2385 opls_1016  91 EH   C0G 134 -0.17230556 12.011
2386 opls_1017  91 EH   H0H 134  0.09059444  1.008
2387 opls_1018  91 EH   H0I 134  0.09059444  1.008
2388 opls_1019  91 EH   C0J 134 -0.23440556 12.011
2389 opls_1020  91 EH   H0K 134  0.08389444  1.008
2390 opls_1021  91 EH   H0M 134  0.08389444  1.008
2391 opls_1022  91 EH   H0N 134  0.08389444  1.008
2392 opls_1023  91 EH   C0O 134 -0.16680556 12.011
2393 opls_1024  91 EH   H0P 134  0.09399444  1.008
2394 opls_1025  91 EH   H0Q 134  0.09399444  1.008
2395 opls_1026  91 EH   C0R 134 -0.17620556 12.011
2396 opls_1027  91 EH   H0S 134  0.08869444  1.008
2397 opls_1028  91 EH   H0T 134  0.08869444  1.008
2398 opls_1029  91 EH   C0U 134 -0.17710556 12.011
2399 opls_1030  91 EH   H0V 134  0.08599444  1.008
2400 opls_1031  91 EH   H0W 134  0.08599444  1.008
2401 opls_1032  91 EH   C0X 135 -0.23570556 12.011
2402 opls_1033  91 EH   H0Y 135  0.08129444  1.008
2403 opls_1034  91 EH   H0Z 135  0.08129444  1.008
2404 opls_1035  91 EH   H10 135  0.08129444  1.008
2405 opls_1135  92 ST   H00 136  0.10359696  1.008
2406 opls_1136  92 ST   C01 136 -0.20110304 12.011
2407 opls_1137  92 ST   H02 136  0.10359697  1.008
2408 opls_1138  92 ST   H03 136  0.10359697  1.008
2409 opls_1139  92 ST   C04 136 -0.14310303 12.011
2410 opls_1140  92 ST   C05 136 -0.16450303 12.011
2411 opls_1141  92 ST   H06 136  0.15039697  1.008
2412 opls_1142  92 ST   H07 136  0.15039697  1.008
2413 opls_1143  92 ST   C08 136  0.47079697 12.011
2414 opls_1144  92 ST   O09 136 -0.46970303 15.999
2415 opls_1145  92 ST   O0A 136 -0.37860303 15.999
2416 opls_1146  92 ST   C0B 136  0.01369697 12.011
2417 opls_1147  92 ST   H0C 136  0.12039697  1.008
2418 opls_1148  92 ST   H0D 136  0.12039697  1.008
2419 opls_1149  92 ST   C0E 136 -0.21050303 12.011
2420 opls_1150  92 ST   H0F 136  0.10689697  1.008
2421 opls_1151  92 ST   H0G 136  0.10689697  1.008
2422 opls_1152  92 ST   C0H 136 -0.17690303 12.011
2423 opls_1153  92 ST   H0I 136  0.09539697  1.008
2424 opls_1154  92 ST   H0J 136  0.09539697  1.008
2425 opls_1155  92 ST   C0K 136 -0.18200303 12.011
2426 opls_1156  92 ST   H0M 136  0.09069697  1.008
2427 opls_1157  92 ST   H0N 136  0.09069697  1.008
2428 opls_1158  92 ST   C0O 136 -0.17810303 12.011
2429 opls_1159  92 ST   H0P 136  0.08999697  1.008
2430 opls_1160  92 ST   H0Q 136  0.08999697  1.008
2431 opls_1161  92 ST   C0R 136 -0.17550303 12.011
2432 opls_1162  92 ST   H0S 136  0.08789697  1.008
2433 opls_1163  92 ST   H0T 136  0.08789697  1.008
2434 opls_1164  92 ST   C0U 136 -0.17810303 12.011
2435 opls_1165  92 ST   H0V 136  0.08819697  1.008
2436 opls_1166  92 ST   H0W 136  0.08819697  1.008
2437 opls_1167  92 ST   C0X 137 -0.18000303 12.011
2438 opls_1168  92 ST   H0Y 137  0.09189697  1.008
2439 opls_1169  92 ST   H0Z 137  0.09189697  1.008
2440 opls_1170  92 ST   C10 137 -0.17800303 12.011
2441 opls_1171  92 ST   H11 137  0.08809697  1.008
2442 opls_1172  92 ST   H12 137  0.08809697  1.008
2443 opls_1173  92 ST   C13 137 -0.17850303 12.011
2444 opls_1174  92 ST   H14 137  0.08859697  1.008
2445 opls_1175  92 ST   H15 137  0.08859697  1.008
2446 opls_1176  92 ST   C16 137 -0.17980303 12.011
2447 opls_1177  92 ST   H17 137  0.09129697  1.008
2448 opls_1178  92 ST   H18 137  0.09129697  1.008
2449 opls_1179  92 ST   C19 137 -0.17840303 12.011
2450 opls_1180  92 ST   H1A 137  0.08869697  1.008
2451 opls_1181  92 ST   H1B 137  0.08869697  1.008
2452 opls_1182  92 ST   C1C 137 -0.17770303 12.011
2453 opls_1183  92 ST   H1D 137  0.08879697  1.008
2454 opls_1184  92 ST   H1E 137  0.08879697  1.008
2455 opls_1185  92 ST   C1F 137 -0.17950303 12.011
2456 opls_1186  92 ST   H1G 137  0.09049697  1.008
2457 opls_1187  92 ST   H1H 137  0.09049697  1.008
2458 opls_1188  92 ST   C1I 137 -0.18020303 12.011
2459 opls_1189  92 ST   H1J 137  0.08919697  1.008
2460 opls_1190  92 ST   H1K 137  0.08919697  1.008
2461 opls_1191  92 ST   C1M 137 -0.17960303 12.011
2462 opls_1192  92 ST   H1N 137  0.08959697  1.008
2463 opls_1193  92 ST   H1O 137  0.08959697  1.008
2464 opls_1194  92 ST   C1P 137 -0.18080303 12.011
2465 opls_1195  92 ST   H1Q 137  0.08849697  1.008
2466 opls_1196  92 ST   H1R 137  0.08849697  1.008
2467 opls_1197  92 ST   C1S 137 -0.23980303 12.011
2468 opls_1198  92 ST   H1T 137  0.08169697  1.008
2469 opls_1199  92 ST   H1U 137  0.08169697  1.008
2470 opls_1200  92 ST   H1V 138  0.08169697  1.008
2471 opls_1000  93 EH   H00 139  0.10189445  1.008
2472 opls_1001  93 EH   C01 139 -0.19260555 12.011
2473 opls_1002  93 EH   H02 139  0.10189445  1.008
2474 opls_1003  93 EH   H03 139  0.10189445  1.008
2475 opls_1004  93 EH   C04 139 -0.15320555 12.011
2476 opls_1005  93 EH   C05 139 -0.16930555 12.011
2477 opls_1006  93 EH   H06 139  0.14479445  1.008
2478 opls_1007  93 EH   H07 139  0.14479445  1.008
2479 opls_1008  93 EH   C08 139  0.47689445 12.011
2480 opls_1009  93 EH   O09 139 -0.46140555 15.999
2481 opls_1010  93 EH   O0A 139 -0.37160555 15.999
2482 opls_1011  93 EH   C0B 139  0.01739445 12.011
2483 opls_1012  93 EH   H0C 139  0.10599445  1.008
2484 opls_1013  93 EH   H0D 139  0.10599445  1.008
2485 opls_1014  93 EH   C0E 139 -0.11380555 12.011
2486 opls_1015  93 EH   H0F 139  0.10879445  1.008
2487 opls_1016  93 EH   C0G 139 -0.17230556 12.011
2488 opls_1017  93 EH   H0H 139  0.09059444  1.008
2489 opls_1018  93 EH   H0I 139  0.09059444  1.008
2490 opls_1019  93 EH   C0J 139 -0.23440556 12.011
2491 opls_1020  93 EH   H0K 139  0.08389444  1.008
2492 opls_1021  93 EH   H0M 139  0.08389444  1.008
2493 opls_1022  93 EH   H0N 139  0.08389444  1.008
2494 opls_1023  93 EH   C0O 139 -0.16680556 12.011
2495 opls_1024  93 EH   H0P 139  0.09399444  1.008
2496 opls_1025  93 EH   H0Q 139  0.09399444  1.008
2497 opls_1026  93 EH   C0R 139 -0.17620556 12.011
2498 opls_1027  93 EH   H0S 139  0.08869444  1.008
2499 opls_1028  93 EH   H0T 139  0.08869444  1.008
2500 opls_1029  93 EH   C0U 139 -0.17710556 12.011
2501 opls_1030  93 EH   H0V 139  0.08599444  1.008
2502 opls_1031  93 EH   H0W 139  0.08599444  1.008
2503 opls_1032  93 EH   C0X 140 -0.23570556 12.011
2504 opls_1033  93 EH   H0Y 140  0.08129444  1.008
2505 opls_1034  93 EH   H0Z 140  0.08129444  1.008
2506 opls_1035  93 EH   H10 140  0.08129444  1.008
2507 opls_1135  94 ST   H00 141  0.10359696  1.008
2508 opls_1136  94 ST   C01 141 -0.20110304 12.011
2509 opls_1137  94 ST   H02 141  0.10359697  1.008
2510 opls_1138  94 ST   H03 141  0.10359697  1.008
2511 opls_1139  94 ST   C04 141 -0.14310303 12.011
2512 opls_1140  94 ST   C05 141 -0.16450303 12.011
2513 opls_1141  94 ST   H06 141  0.15039697  1.008
2514 opls_1142  94 ST   H07 141  0.15039697  1.008
2515 opls_1143  94 ST   C08 141  0.47079697 12.011
2516 opls_1144  94 ST   O09 141 -0.46970303 15.999
2517 opls_1145  94 ST   O0A 141 -0.37860303 15.999
2518 opls_1146  94 ST   C0B 141  0.01369697 12.011
2519 opls_1147  94 ST   H0C 141  0.12039697  1.008
2520 opls_1148  94 ST   H0D 141  0.12039697  1.008
2521 opls_1149  94 ST   C0E 141 -0.21050303 12.011
2522 opls_1150  94 ST   H0F 141  0.10689697  1.008
2523 opls_1151  94 ST   H0G 141  0.10689697  1.008
2524 opls_1152  94 ST   C0H 141 -0.17690303 12.011
2525 opls_1153  94 ST   H0I 141  0.09539697  1.008
2526 opls_1154  94 ST   H0J 141  0.09539697  1.008
2527 opls_1155  94 ST   C0K 141 -0.18200303 12.011
2528 opls_1156  94 ST   H0M 141  0.09069697  1.008
2529 opls_1157  94 ST   H0N 141  0.09069697  1.008
2530 opls_1158  94 ST   C0O 141 -0.17810303 12.011
2531 opls_1159  94 ST   H0P 141  0.08999697  1.008
2532 opls_1160  94 ST   H0Q 141  0.08999697  1.008
2533 opls_1161  94 ST   C0R 141 -0.17550303 12.011
2534 opls_1162  94 ST   H0S 141  0.08789697  1.008
2535 opls_1163  94 ST   H0T 141  0.08789697  1.008
2536 opls_1164  94 ST   C0U 141 -0.17810303 12.011
2537 opls_1165  94 ST   H0V 141  0.08819697  1.008
2538 opls_1166  94 ST   H0W 141  0.08819697  1.008
2539 opls_1167  94 ST   C0X 142 -0.18000303 12.011
2540 opls_1168  94 ST   H0Y 142  0.09189697  1.008
2541 opls_1169  94 ST   H0Z 142  0.09189697  1.008
2542 opls_1170  94 ST   C10 142 -0.17800303 12.011
2543 opls_1171  94 ST   H11 142  0.08809697  1.008
2544 opls_1172  94 ST   H12 142  0.08809697  1.008
2545 opls_1173  94 ST   C13 142 -0.17850303 12.011
2546 opls_1174  94 ST   H14 142  0.08859697  1.008
2547 opls_1175  94 ST   H15 142  0.08859697  1.008
2548 opls_1176  94 ST   C16 142 -0.17980303 12.011
2549 opls_1177  94 ST   H17 142  0.09129697  1.008
2550 opls_1178  94 ST   H18 142  0.09129697  1.008
2551 opls_1179  94 ST   C19 142 -0.17840303 12.011
2552 opls_1180  94 ST   H1A 142  0.08869697  1.008
2553 opls_1181  94 ST   H1B 142  0.08869697  1.008
2554 opls_1182  94 ST   C1C 142 -0.17770303 12.011
2555 opls_1183  94 ST   H1D 142  0.08879697  1.008
2556 opls_1184  94 ST   H1E 142  0.08879697  1.008
2557 opls_1185  94 ST   C1F 142 -0.17950303 12.011
2558 opls_1186  94 ST   H1G 142  0.09049697  1.008
2559 opls_1187  94 ST   H1H 142  0.09049697  1.008
2560 opls_1188  94 ST   C1I 142 -0.18020303 12.011
2561 opls_1189  94 ST   H1J 142  0.08919697  1.008
2562 opls_1190  94 ST   H1K 142  0.08919697  1.008
2563 opls_1191  94 ST   C1M 142 -0.17960303 12.011
2564 opls_1192  94 ST   H1N 142  0.08959697  1.008
2565 opls_1193  94 ST   H1O 142  0.08959697  1.008
2566 opls_1194  94 ST   C1P 142 -0.18080303 12.011
2567 opls_1195  94 ST   H1Q 142  0.08849697  1.008
2568 opls_1196  94 ST   H1R 142  0.08849697  1.008
2569 opls_1197  94 ST   C1S 142 -0.23980303 12.011
2570 opls_1198  94 ST   H1T 142  0.08169697  1.008
2571 opls_1199  94 ST   H1U 142  0.08169697  1.008
2572 opls_1200  94 ST   H1V 143  0.08169697  1.008
2573 opls_1000  95 EH   H00 144  0.10189445  1.008
2574 opls_1001  95 EH   C01 144 -0.19260555 12.011
2575 opls_1002  95 EH   H02 144  0.10189445  1.008
2576 opls_1003  95 EH   H03 144  0.10189445  1.008
2577 opls_1004  95 EH   C04 144 -0.15320555 12.011
2578 opls_1005  95 EH   C05 144 -0.16930555 12.011
2579 opls_1006  95 EH   H06 144  0.14479445  1.008
2580 opls_1007  95 EH   H07 144  0.14479445  1.008
2581 opls_1008  95 EH   C08 144  0.47689445 12.011
2582 opls_1009  95 EH   O09 144 -0.46140555 15.999
2583 opls_1010  95 EH   O0A 144 -0.37160555 15.999
2584 opls_1011  95 EH   C0B 144  0.01739445 12.011
2585 opls_1012  95 EH   H0C 144  0.10599445  1.008
2586 opls_1013  95 EH   H0D 144  0.10599445  1.008
2587 opls_1014  95 EH   C0E 144 -0.11380555 12.011
2588 opls_1015  95 EH   H0F 144  0.10879445  1.008
2589 opls_1016  95 EH   C0G 144 -0.17230556 12.011
2590 opls_1017  95 EH   H0H 144  0.09059444  1.008
2591 opls_1018  95 EH   H0I 144  0.09059444  1.008
2592 opls_1019  95 EH   C0J 144 -0.23440556 12.011
2593 opls_1020  95 EH   H0K 144  0.08389444  1.008
2594 opls_1021  95 EH   H0M 144  0.08389444  1.008
2595 opls_1022  95 EH   H0N 144  0.08389444  1.008
2596 opls_1023  95 EH   C0O 144 -0.16680556 12.011
2597 opls_1024  95 EH   H0P 144  0.09399444  1.008
2598 opls_1025  95 EH   H0Q 144  0.09399444  1.008
2599 opls_1026  95 EH   C0R 144 -0.17620556 12.011
2600 opls_1027  95 EH   H0S 144  0.08869444  1.008
2601 opls_1028  95 EH   H0T 144  0.08869444  1.008
2602 opls_1029  95 EH   C0U 144 -0.17710556 12.011
2603 opls_1030  95 EH   H0V 144  0.08599444  1.008
2604 opls_1031  95 EH   H0W 144  0.08599444  1.008
2605 opls_1032  95 EH   C0X 145 -0.23570556 12.011
2606 opls_1033  95 EH   H0Y 145  0.08129444  1.008
2607 opls_1034  95 EH   H0Z 145  0.08129444  1.008
2608 opls_1035  95 EH   H10 145  0.08129444  1.008
2609 opls_1135  96 ST   H00 146  0.10359696  1.008
2610 opls_1136  96 ST   C01 146 -0.20110304 12.011
2611 opls_1137  96 ST   H02 146  0.10359697  1.008
2612 opls_1138  96 ST   H03 146  0.10359697  1.008
2613 opls_1139  96 ST   C04 146 -0.14310303 12.011
2614 opls_1140  96 ST   C05 146 -0.16450303 12.011
2615 opls_1141  96 ST   H06 146  0.15039697  1.008
2616 opls_1142  96 ST   H07 146  0.15039697  1.008
2617 opls_1143  96 ST   C08 146  0.47079697 12.011
2618 opls_1144  96 ST   O09 146 -0.46970303 15.999
2619 opls_1145  96 ST   O0A 146 -0.37860303 15.999
2620 opls_1146  96 ST   C0B 146  0.01369697 12.011
2621 opls_1147  96 ST   H0C 146  0.12039697  1.008
2622 opls_1148  96 ST   H0D 146  0.12039697  1.008
2623 opls_1149  96 ST   C0E 146 -0.21050303 12.011
2624 opls_1150  96 ST   H0F 146  0.10689697  1.008
2625 opls_1151  96 ST   H0G 146  0.10689697  1.008
2626 opls_1152  96 ST   C0H 146 -0.17690303 12.011
2627 opls_1153  96 ST   H0I 146  0.09539697  1.008
2628 opls_1154  96 ST   H0J 146  0.09539697  1.008
2629 opls_1155  96 ST   C0K 146 -0.18200303 12.011
2630 opls_1156  96 ST   H0M 146  0.09069697  1.008
2631 opls_1157  96 ST   H0N 146  0.09069697  1.008
2632 opls_1158  96 ST   C0O 146 -0.17810303 12.011
2633 opls_1159  96 ST   H0P 146  0.08999697  1.008
2634 opls_1160  96 ST   H0Q 146  0.08999697  1.008
2635 opls_1161  96 ST   C0R 146 -0.17550303 12.011
2636 opls_1162  96 ST   H0S 146  0.08789697  1.008
2637 opls_1163  96 ST   H0T 146  0.08789697  1.008
2638 opls_1164  96 ST   C0U 146 -0.17810303 12.011
2639 opls_1165  96 ST   H0V 146  0.08819697  1.008
2640 opls_1166  96 ST   H0W 146  0.08819697  1.008
2641 opls_1167  96 ST   C0X 147 -0.18000303 12.011
2642 opls_1168  96 ST   H0Y 147  0.09189697  1.008
2643 opls_1169  96 ST   H0Z 147  0.09189697  1.008
2644 opls_1170  96 ST   C10 147 -0.17800303 12.011
2645 opls_1171  96 ST   H11 147  0.08809697  1.008
2646 opls_1172  96 ST   H12 147  0.08809697  1.008
2647 opls_1173  96 ST   C13 147 -0.17850303 12.011
2648 opls_1174  96 ST   H14 147  0.08859697  1.008
2649 opls_1175  96 ST   H15 147  0.08859697  1.008
2650 opls_1176  96 ST   C16 147 -0.17980303 12.011
2651 opls_1177  96 ST   H17 147  0.09129697  1.008
2652 opls_1178  96 ST   H18 147  0.09129697  1.008
2653 opls_1179  96 ST   C19 147 -0.17840303 12.011
2654 opls_1180  96 ST   H1A 147  0.08869697  1.008
2655 opls_1181  96 ST   H1B 147  0.08869697  1.008
2656 opls_1182  96 ST   C1C 147 -0.17770303 12.011
2657 opls_1183  96 ST   H1D 147  0.08879697  1.008
2658 opls_1184  96 ST   H1E 147  0.08879697  1.008
2659 opls_1185  96 ST   C1F 147 -0.17950303 12.011
2660 opls_1186  96 ST   H1G 147  0.09049697  1.008
2661 opls_1187  96 ST   H1H 147  0.09049697  1.008
2662 opls_1188  96 ST   C1I 147 -0.18020303 12.011
2663 opls_1189  96 ST   H1J 147  0.08919697  1.008
2664 opls_1190  96 ST   H1K 147  0.08919697  1.008
2665 opls_1191  96 ST   C1M 147 -0.17960303 12.011
2666 opls_1192  96 ST   H1N 147  0.08959697  1.008
2667 opls_1193  96 ST   H1O 147  0.08959697  1.008
2668 opls_1194  96 ST   C1P 147 -0.18080303 12.011
2669 opls_1195  96 ST   H1Q 147  0.08849697  1.008
2670 opls_1196  96 ST   H1R 147  0.08849697  1.008
2671 opls_1197  96 ST   C1S 147 -0.23980303 12.011
2672 opls_1198  96 ST   H1T 147  0.08169697  1.008
2673 opls_1199  96 ST   H1U 147  0.08169697  1.008
2674 opls_1200  96 ST   H1V 148  0.08169697  1.008
2675 opls_1000  97 EH   H00 149  0.10189445  1.008
2676 opls_1001  97 EH   C01 149 -0.19260555 12.011
2677 opls_1002  97 EH   H02 149  0.10189445  1.008
2678 opls_1003  97 EH   H03 149  0.10189445  1.008
2679 opls_1004  97 EH   C04 149 -0.15320555 12.011
2680 opls_1005  97 EH   C05 149 -0.16930555 12.011
2681 opls_1006  97 EH   H06 149  0.14479445  1.008
2682 opls_1007  97 EH   H07 149  0.14479445  1.008
2683 opls_1008  97 EH   C08 149  0.47689445 12.011
2684 opls_1009  97 EH   O09 149 -0.46140555 15.999
2685 opls_1010  97 EH   O0A 149 -0.37160555 15.999
2686 opls_1011  97 EH   C0B 149  0.01739445 12.011
2687 opls_1012  97 EH   H0C 149  0.10599445  1.008
2688 opls_1013  97 EH   H0D 149  0.10599445  1.008
2689 opls_1014  97 EH   C0E 149 -0.11380555 12.011
2690 opls_1015  97 EH   H0F 149  0.10879445  1.008
2691 opls_1016  97 EH   C0G 149 -0.17230556 12.011
2692 opls_1017  97 EH   H0H 149  0.09059444  1.008
2693 opls_1018  97 EH   H0I 149  0.09059444  1.008
2694 opls_1019  97 EH   C0J 149 -0.23440556 12.011
2695 opls_1020  97 EH   H0K 149  0.08389444  1.008
2696 opls_1021  97 EH   H0M 149  0.08389444  1.008
2697 opls_1022  97 EH   H0N 149  0.08389444  1.008
2698 opls_1023  97 EH   C0O 149 -0.16680556 12.011
2699 opls_1024  97 EH   H0P 149  0.09399444  1.008
2700 opls_1025  97 EH   H0Q 149  0.09399444  1.008
2701 opls_1026  97 EH   C0R 149 -0.17620556 12.011
2702 opls_1027  97 EH   H0S 149  0.08869444  1.008
2703 opls_1028  97 EH   H0T 149  0.08869444  1.008
2704 opls_1029  97 EH   C0U 149 -0.17710556 12.011
2705 opls_1030  97 EH   H0V 149  0.08599444  1.008
2706 opls_1031  97 EH   H0W 149  0.08599444  1.008
2707 opls_1032  97 EH   C0X 150 -0.23570556 12.011
2708 opls_1033  97 EH   H0Y 150  0.08129444  1.008
2709 opls_1034  97 EH   H0Z 150  0.08129444  1.008
2710 opls_1035  97 EH   H10 150  0.08129444  1.008
2711 opls_1036  98 LA   H00 151      0.1018  1.008
2712 opls_1037  98 LA   C01 151     -0.1925 12.011
2713 opls_1038  98 LA   H02 151      0.1018  1.008
2714 opls_1039  98 LA   H03 151      0.1018  1.008
2715 opls_1040  98 LA   C04 151      -0.154 12.011
2716 opls_1041  98 LA   C05 151     -0.1693 12.011
2717 opls_1042  98 LA   H06 151       0.145  1.008
2718 opls_1043  98 LA   H07 151       0.145  1.008
2719 opls_1044  98 LA   C08 151      0.4759 12.011
2720 opls_1045  98 LA   O09 151     -0.4618 15.999
2721 opls_1046  98 LA   O0A 151     -0.3719 15.999
2722 opls_1047  98 LA   C0B 151      0.0179 12.011
2723 opls_1048  98 LA   H0C 151      0.1065  1.008
2724 opls_1049  98 LA   H0D 151      0.1065  1.008
2725 opls_1050  98 LA   C0E 151     -0.1807 12.011
2726 opls_1051  98 LA   H0F 151      0.1036  1.008
2727 opls_1052  98 LA   H0G 151      0.1036  1.008
2728 opls_1053  98 LA   C0H 151     -0.1746 12.011
2729 opls_1054  98 LA   H0I 151      0.0946  1.008
2730 opls_1055  98 LA   H0J 151      0.0946  1.008
2731 opls_1056  98 LA   C0K 151     -0.1762 12.011
2732 opls_1057  98 LA   H0M 151      0.0878  1.008
2733 opls_1058  98 LA   H0N 151      0.0878  1.008
2734 opls_1059  98 LA   C0O 151     -0.1732 12.011
2735 opls_1060  98 LA   H0P 151      0.0879  1.008
2736 opls_1061  98 LA   H0Q 151      0.0879  1.008
2737 opls_1062  98 LA   C0R 151     -0.1741 12.011
2738 opls_1063  98 LA   H0S 151      0.0886  1.008
2739 opls_1064  98 LA   H0T 151      0.0886  1.008
2740 opls_1065  98 LA   C0U 151     -0.1731 12.011
2741 opls_1066  98 LA   H0V 151      0.0876  1.008
2742 opls_1067  98 LA   H0W 151      0.0876  1.008
2743 opls_1068  98 LA   C0X 152     -0.1734 12.011
2744 opls_1069  98 LA   H0Y 152       0.087  1.008
2745 opls_1070  98 LA   H0Z 152       0.087  1.008
2746 opls_1071  98 LA   C10 152      -0.176 12.011
2747 opls_1072  98 LA   H11 152      0.0872  1.008
2748 opls_1073  98 LA   H12 152      0.0872  1.008
2749 opls_1074  98 LA   C13 152     -0.1769 12.011
2750 opls_1075  98 LA   H14 152      0.0865  1.008
2751 opls_1076  98 LA   H15 152      0.0865  1.008
2752 opls_1077  98 LA   C16 152     -0.1758 12.011
2753 opls_1078  98 LA   H17 152      0.0861  1.008
2754 opls_1079  98 LA   H18 152      0.0861  1.008
2755 opls_1080  98 LA   C19 152     -0.2355 12.011
2756 opls_1081  98 LA   H1A 152       0.081  1.008
2757 opls_1082  98 LA   H1B 152       0.081  1.008
2758 opls_1083  98 LA   H1C 152       0.081  1.008
2759 opls_1000  99 EH   H00 153  0.10189445  1.008
2760 opls_1001  99 EH   C01 153 -0.19260555 12.011
2761 opls_1002  99 EH   H02 153  0.10189445  1.008
2762 opls_1003  99 EH   H03 153  0.10189445  1.008
2763 opls_1004  99 EH   C04 153 -0.15320555 12.011
2764 opls_1005  99 EH   C05 153 -0.16930555 12.011
2765 opls_1006  99 EH   H06 153  0.14479445  1.008
2766 opls_1007  99 EH   H07 153  0.14479445  1.008
2767 opls_1008  99 EH   C08 153  0.47689445 12.011
2768 opls_1009  99 EH   O09 153 -0.46140555 15.999
2769 opls_1010  99 EH   O0A 153 -0.37160555 15.999
2770 opls_1011  99 EH   C0B 153  0.01739445 12.011
2771 opls_1012  99 EH   H0C 153  0.10599445  1.008
2772 opls_1013  99 EH   H0D 153  0.10599445  1.008
2773 opls_1014  99 EH   C0E 153 -0.11380555 12.011
2774 opls_1015  99 EH   H0F 153  0.10879445  1.008
2775 opls_1016  99 EH   C0G 153 -0.17230556 12.011
2776 opls_1017  99 EH   H0H 153  0.09059444  1.008
2777 opls_1018  99 EH   H0I 153  0.09059444  1.008
2778 opls_1019  99 EH   C0J 153 -0.23440556 12.011
2779 opls_1020  99 EH   H0K 153  0.08389444  1.008
2780 opls_1021  99 EH   H0M 153  0.08389444  1.008
2781 opls_1022  99 EH   H0N 153  0.08389444  1.008
2782 opls_1023  99 EH   C0O 153 -0.16680556 12.011
2783 opls_1024  99 EH   H0P 153  0.09399444  1.008
2784 opls_1025  99 EH   H0Q 153  0.09399444  1.008
2785 opls_1026  99 EH   C0R 153 -0.17620556 12.011
2786 opls_1027  99 EH   H0S 153  0.08869444  1.008
2787 opls_1028  99 EH   H0T 153  0.08869444  1.008
2788 opls_1029  99 EH   C0U 153 -0.17710556 12.011
2789 opls_1030  99 EH   H0V 153  0.08599444  1.008
2790 opls_1031  99 EH   H0W 153  0.08599444  1.008
2791 opls_1032  99 EH   C0X 154 -0.23570556 12.011
2792 opls_1033  99 EH   H0Y 154  0.08129444  1.008
2793 opls_1034  99 EH   H0Z 154  0.08129444  1.008
2794 opls_1035  99 EH   H10 154  0.08129444  1.008
2795 opls_1000 100 EH   H00 155  0.10189445  1.008
2796 opls_1001 100 EH   C01 155 -0.19260555 12.011
2797 opls_1002 100 EH   H02 155  0.10189445  1.008
2798 opls_1003 100 EH   H03 155  0.10189445  1.008
2799 opls_1004 100 EH   C04 155 -0.15320555 12.011
2800 opls_1005 100 EH   C05 155 -0.16930555 12.011
2801 opls_1006 100 EH   H06 155  0.14479445  1.008
2802 opls_1007 100 EH   H07 155  0.14479445  1.008
2803 opls_1008 100 EH   C08 155  0.47689445 12.011
2804 opls_1009 100 EH   O09 155 -0.46140555 15.999
2805 opls_1010 100 EH   O0A 155 -0.37160555 15.999
2806 opls_1011 100 EH   C0B 155  0.01739445 12.011
2807 opls_1012 100 EH   H0C 155  0.10599445  1.008
2808 opls_1013 100 EH   H0D 155  0.10599445  1.008
2809 opls_1014 100 EH   C0E 155 -0.11380555 12.011
2810 opls_1015 100 EH   H0F 155  0.10879445  1.008
2811 opls_1016 100 EH   C0G 155 -0.17230556 12.011
2812 opls_1017 100 EH   H0H 155  0.09059444  1.008
2813 opls_1018 100 EH   H0I 155  0.09059444  1.008
2814 opls_1019 100 EH   C0J 155 -0.23440556 12.011
2815 opls_1020 100 EH   H0K 155  0.08389444  1.008
2816 opls_1021 100 EH   H0M 155  0.08389444  1.008
2817 opls_1022 100 EH   H0N 155  0.08389444  1.008
2818 opls_1023 100 EH   C0O 155 -0.16680556 12.011
2819 opls_1024 100 EH   H0P 155  0.09399444  1.008
2820 opls_1025 100 EH   H0Q 155  0.09399444  1.008
2821 opls_1026 100 EH   C0R 155 -0.17620556 12.011
2822 opls_1027 100 EH   H0S 155  0.08869444  1.008
2823 opls_1028 100 EH   H0T 155  0.08869444  1.008
2824 opls_1029 100 EH   C0U 155 -0.17710556 12.011
2825 opls_1030 100 EH   H0V 155  0.08599444  1.008
2826 opls_1031 100 EH   H0W 155  0.08599444  1.008
2827 opls_1032 100 EH   C0X 156 -0.23570556 12.011
2828 opls_1033 100 EH   H0Y 156  0.08129444  1.008
2829 opls_1034 100 EH   H0Z 156  0.08129444  1.008
2830 opls_1035 100 EH   H10 156  0.08129444  1.008
2831 opls_1135 101 ST   H00 157  0.10359696  1.008
2832 opls_1136 101 ST   C01 157 -0.20110304 12.011
2833 opls_1137 101 ST   H02 157  0.10359697  1.008
2834 opls_1138 101 ST   H03 157  0.10359697  1.008
2835 opls_1139 101 ST   C04 157 -0.14310303 12.011
2836 opls_1140 101 ST   C05 157 -0.16450303 12.011
2837 opls_1141 101 ST   H06 157  0.15039697  1.008
2838 opls_1142 101 ST   H07 157  0.15039697  1.008
2839 opls_1143 101 ST   C08 157  0.47079697 12.011
2840 opls_1144 101 ST   O09 157 -0.46970303 15.999
2841 opls_1145 101 ST   O0A 157 -0.37860303 15.999
2842 opls_1146 101 ST   C0B 157  0.01369697 12.011
2843 opls_1147 101 ST   H0C 157  0.12039697  1.008
2844 opls_1148 101 ST   H0D 157  0.12039697  1.008
2845 opls_1149 101 ST   C0E 157 -0.21050303 12.011
2846 opls_1150 101 ST   H0F 157  0.10689697  1.008
2847 opls_1151 101 ST   H0G 157  0.10689697  1.008
2848 opls_1152 101 ST   C0H 157 -0.17690303 12.011
2849 opls_1153 101 ST   H0I 157  0.09539697  1.008
2850 opls_1154 101 ST   H0J 157  0.09539697  1.008
2851 opls_1155 101 ST   C0K 157 -0.18200303 12.011
2852 opls_1156 101 ST   H0M 157  0.09069697  1.008
2853 opls_1157 101 ST   H0N 157  0.09069697  1.008
2854 opls_1158 101 ST   C0O 157 -0.17810303 12.011
2855 opls_1159 101 ST   H0P 157  0.08999697  1.008
2856 opls_1160 101 ST   H0Q 157  0.08999697  1.008
2857 opls_1161 101 ST   C0R 157 -0.17550303 12.011
2858 opls_1162 101 ST   H0S 157  0.08789697  1.008
2859 opls_1163 101 ST   H0T 157  0.08789697  1.008
2860 opls_1164 101 ST   C0U 157 -0.17810303 12.011
2861 opls_1165 101 ST   H0V 157  0.08819697  1.008
2862 opls_1166 101 ST   H0W 157  0.08819697  1.008
2863 opls_1167 101 ST   C0X 158 -0.18000303 12.011
2864 opls_1168 101 ST   H0Y 158  0.09189697  1.008
2865 opls_1169 101 ST   H0Z 158  0.09189697  1.008
2866 opls_1170 101 ST   C10 158 -0.17800303 12.011
2867 opls_1171 101 ST   H11 158  0.08809697  1.008
2868 opls_1172 101 ST   H12 158  0.08809697  1.008
2869 opls_1173 101 ST   C13 158 -0.17850303 12.011
2870 opls_1174 101 ST   H14 158  0.08859697  1.008
2871 opls_1175 101 ST   H15 158  0.08859697  1.008
2872 opls_1176 101 ST   C16 158 -0.17980303 12.011
2873 opls_1177 101 ST   H17 158  0.09129697  1.008
2874 opls_1178 101 ST   H18 158  0.09129697  1.008
2875 opls_1179 101 ST   C19 158 -0.17840303 12.011
2876 opls_1180 101 ST   H1A 158  0.08869697  1.008
2877 opls_1181 101 ST   H1B 158  0.08869697  1.008
2878 opls_1182 101 ST   C1C 158 -0.17770303 12.011
2879 opls_1183 101 ST   H1D 158  0.08879697  1.008
2880 opls_1184 101 ST   H1E 158  0.08879697  1.008
2881 opls_1185 101 ST   C1F 158 -0.17950303 12.011
2882 opls_1186 101 ST   H1G 158  0.09049697  1.008
2883 opls_1187 101 ST   H1H 158  0.09049697  1.008
2884 opls_1188 101 ST   C1I 158 -0.18020303 12.011
2885 opls_1189 101 ST   H1J 158  0.08919697  1.008
2886 opls_1190 101 ST   H1K 158  0.08919697  1.008
2887 opls_1191 101 ST   C1M 158 -0.17960303 12.011
2888 opls_1192 101 ST   H1N 158  0.08959697  1.008
2889 opls_1193 101 ST   H1O 158  0.08959697  1.008
2890 opls_1194 101 ST   C1P 158 -0.18080303 12.011
2891 opls_1195 101 ST   H1Q 158  0.08849697  1.008
2892 opls_1196 101 ST   H1R 158  0.08849697  1.008
2893 opls_1197 101 ST   C1S 158 -0.23980303 12.011
2894 opls_1198 101 ST   H1T 158  0.08169697  1.008
2895 opls_1199 101 ST   H1U 158  0.08169697  1.008
2896 opls_1200 101 ST   H1V 159  0.08169697  1.008
2897 opls_1000 102 EH   H00 160  0.10189445  1.008
2898 opls_1001 102 EH   C01 160 -0.19260555 12.011
2899 opls_1002 102 EH   H02 160  0.10189445  1.008
2900 opls_1003 102 EH   H03 160  0.10189445  1.008
2901 opls_1004 102 EH   C04 160 -0.15320555 12.011
2902 opls_1005 102 EH   C05 160 -0.16930555 12.011
2903 opls_1006 102 EH   H06 160  0.14479445  1.008
2904 opls_1007 102 EH   H07 160  0.14479445  1.008
2905 opls_1008 102 EH   C08 160  0.47689445 12.011
2906 opls_1009 102 EH   O09 160 -0.46140555 15.999
2907 opls_1010 102 EH   O0A 160 -0.37160555 15.999
2908 opls_1011 102 EH   C0B 160  0.01739445 12.011
2909 opls_1012 102 EH   H0C 160  0.10599445  1.008
2910 opls_1013 102 EH   H0D 160  0.10599445  1.008
2911 opls_1014 102 EH   C0E 160 -0.11380555 12.011
2912 opls_1015 102 EH   H0F 160  0.10879445  1.008
2913 opls_1016 102 EH   C0G 160 -0.17230556 12.011
2914 opls_1017 102 EH   H0H 160  0.09059444  1.008
2915 opls_1018 102 EH   H0I 160  0.09059444  1.008
2916 opls_1019 102 EH   C0J 160 -0.23440556 12.011
2917 opls_1020 102 EH   H0K 160  0.08389444  1.008
2918 opls_1021 102 EH   H0M 160  0.08389444  1.008
2919 opls_1022 102 EH   H0N 160  0.08389444  1.008
2920 opls_1023 102 EH   C0O 160 -0.16680556 12.011
2921 opls_1024 102 EH   H0P 160  0.09399444  1.008
2922 opls_1025 102 EH   H0Q 160  0.09399444  1.008
2923 opls_1026 102 EH   C0R 160 -0.17620556 12.011
2924 opls_1027 102 EH   H0S 160  0.08869444  1.008
2925 opls_1028 102 EH   H0T 160  0.08869444  1.008
2926 opls_1029 102 EH   C0U 160 -0.17710556 12.011
2927 opls_1030 102 EH   H0V 160  0.08599444  1.008
2928 opls_1031 102 EH   H0W 160  0.08599444  1.008
2929 opls_1032 102 EH   C0X 161 -0.23570556 12.011
2930 opls_1033 102 EH   H0Y 161  0.08129444  1.008
2931 opls_1034 102 EH   H0Z 161  0.08129444  1.008
2932 opls_1035 102 EH   H10 161  0.08129444  1.008
2933 opls_1036 103 LA   H00 162      0.1018  1.008
2934 opls_1037 103 LA   C01 162     -0.1925 12.011
2935 opls_1038 103 LA   H02 162      0.1018  1.008
2936 opls_1039 103 LA   H03 162      0.1018  1.008
2937 opls_1040 103 LA   C04 162      -0.154 12.011
2938 opls_1041 103 LA   C05 162     -0.1693 12.011
2939 opls_1042 103 LA   H06 162       0.145  1.008
2940 opls_1043 103 LA   H07 162       0.145  1.008
2941 opls_1044 103 LA   C08 162      0.4759 12.011
2942 opls_1045 103 LA   O09 162     -0.4618 15.999
2943 opls_1046 103 LA   O0A 162     -0.3719 15.999
2944 opls_1047 103 LA   C0B 162      0.0179 12.011
2945 opls_1048 103 LA   H0C 162      0.1065  1.008
2946 opls_1049 103 LA   H0D 162      0.1065  1.008
2947 opls_1050 103 LA   C0E 162     -0.1807 12.011
2948 opls_1051 103 LA   H0F 162      0.1036  1.008
2949 opls_1052 103 LA   H0G 162      0.1036  1.008
2950 opls_1053 103 LA   C0H 162     -0.1746 12.011
2951 opls_1054 103 LA   H0I 162      0.0946  1.008
2952 opls_1055 103 LA   H0J 162      0.0946  1.008
2953 opls_1056 103 LA   C0K 162     -0.1762 12.011
2954 opls_1057 103 LA   H0M 162      0.0878  1.008
2955 opls_1058 103 LA   H0N 162      0.0878  1.008
2956 opls_1059 103 LA   C0O 162     -0.1732 12.011
2957 opls_1060 103 LA   H0P 162      0.0879  1.008
2958 opls_1061 103 LA   H0Q 162      0.0879  1.008
2959 opls_1062 103 LA   C0R 162     -0.1741 12.011
2960 opls_1063 103 LA   H0S 162      0.0886  1.008
2961 opls_1064 103 LA   H0T 162      0.0886  1.008
2962 opls_1065 103 LA   C0U 162     -0.1731 12.011
2963 opls_1066 103 LA   H0V 162      0.0876  1.008
2964 opls_1067 103 LA   H0W 162      0.0876  1.008
2965 opls_1068 103 LA   C0X 163     -0.1734 12.011
2966 opls_1069 103 LA   H0Y 163       0.087  1.008
2967 opls_1070 103 LA   H0Z 163       0.087  1.008
2968 opls_1071 103 LA   C10 163      -0.176 12.011
2969 opls_1072 103 LA   H11 163      0.0872  1.008
2970 opls_1073 103 LA   H12 163      0.0872  1.008
2971 opls_1074 103 LA   C13 163     -0.1769 12.011
2972 opls_1075 103 LA   H14 163      0.0865  1.008
2973 opls_1076 103 LA   H15 163      0.0865  1.008
2974 opls_1077 103 LA   C16 163     -0.1758 12.011
2975 opls_1078 103 LA   H17 163      0.0861  1.008
2976 opls_1079 103 LA   H18 163      0.0861  1.008
2977 opls_1080 103 LA   C19 163     -0.2355 12.011
2978 opls_1081 103 LA   H1A 163       0.081  1.008
2979 opls_1082 103 LA   H1B 163       0.081  1.008
2980 opls_1083 103 LA   H1C 163       0.081  1.008
2981 opls_1000 104 EH   H00 164  0.10189445  1.008
2982 opls_1001 104 EH   C01 164 -0.19260555 12.011
2983 opls_1002 104 EH   H02 164  0.10189445  1.008
2984 opls_1003 104 EH   H03 164  0.10189445  1.008
2985 opls_1004 104 EH   C04 164 -0.15320555 12.011
2986 opls_1005 104 EH   C05 164 -0.16930555 12.011
2987 opls_1006 104 EH   H06 164  0.14479445  1.008
2988 opls_1007 104 EH   H07 164  0.14479445  1.008
2989 opls_1008 104 EH   C08 164  0.47689445 12.011
2990 opls_1009 104 EH   O09 164 -0.46140555 15.999
2991 opls_1010 104 EH   O0A 164 -0.37160555 15.999
2992 opls_1011 104 EH   C0B 164  0.01739445 12.011
2993 opls_1012 104 EH   H0C 164  0.10599445  1.008
2994 opls_1013 104 EH   H0D 164  0.10599445  1.008
2995 opls_1014 104 EH   C0E 164 -0.11380555 12.011
2996 opls_1015 104 EH   H0F 164  0.10879445  1.008
2997 opls_1016 104 EH   C0G 164 -0.17230556 12.011
2998 opls_1017 104 EH   H0H 164  0.09059444  1.008
2999 opls_1018 104 EH   H0I 164  0.09059444  1.008
3000 opls_1019 104 EH   C0J 164 -0.23440556 12.011
3001 opls_1020 104 EH   H0K 164  0.08389444  1.008
3002 opls_1021 104 EH   H0M 164  0.08389444  1.008
3003 opls_1022 104 EH   H0N 164  0.08389444  1.008
3004 opls_1023 104 EH   C0O 164 -0.16680556 12.011
3005 opls_1024 104 EH   H0P 164  0.09399444  1.008
3006 opls_1025 104 EH   H0Q 164  0.09399444  1.008
3007 opls_1026 104 EH   C0R 164 -0.17620556 12.011
3008 opls_1027 104 EH   H0S 164  0.08869444  1.008
3009 opls_1028 104 EH   H0T 164  0.08869444  1.008
3010 opls_1029 104 EH   C0U 164 -0.17710556 12.011
3011 opls_1030 104 EH   H0V 164  0.08599444  1.008
3012 opls_1031 104 EH   H0W 164  0.08599444  1.008
3013 opls_1032 104 EH   C0X 165 -0.23570556 12.011
3014 opls_1033 104 EH   H0Y 165  0.08129444  1.008
3015 opls_1034 104 EH   H0Z 165  0.08129444  1.008
3016 opls_1035 104 EH   H10 165  0.08129444  1.008
3017 opls_1036 105 LA   H00 166      0.1018  1.008
3018 opls_1037 105 LA   C01 166     -0.1925 12.011
3019 opls_1038 105 LA   H02 166      0.1018  1.008
3020 opls_1039 105 LA   H03 166      0.1018  1.008
3021 opls_1040 105 LA   C04 166      -0.154 12.011
3022 opls_1041 105 LA   C05 166     -0.1693 12.011
3023 opls_1042 105 LA   H06 166       0.145  1.008
3024 opls_1043 105 LA   H07 166       0.145  1.008
3025 opls_1044 105 LA   C08 166      0.4759 12.011
3026 opls_1045 105 LA   O09 166     -0.4618 15.999
3027 opls_1046 105 LA   O0A 166     -0.3719 15.999
3028 opls_1047 105 LA   C0B 166      0.0179 12.011
3029 opls_1048 105 LA   H0C 166      0.1065  1.008
3030 opls_1049 105 LA   H0D 166      0.1065  1.008
3031 opls_1050 105 LA   C0E 166     -0.1807 12.011
3032 opls_1051 105 LA   H0F 166      0.1036  1.008
3033 opls_1052 105 LA   H0G 166      0.1036  1.008
3034 opls_1053 105 LA   C0H 166     -0.1746 12.011
3035 opls_1054 105 LA   H0I 166      0.0946  1.008
3036 opls_1055 105 LA   H0J 166      0.0946  1.008
3037 opls_1056 105 LA   C0K 166     -0.1762 12.011
3038 opls_1057 105 LA   H0M 166      0.0878  1.008
3039 opls_1058 105 LA   H0N 166      0.0878  1.008
3040 opls_1059 105 LA   C0O 166     -0.1732 12.011
3041 opls_1060 105 LA   H0P 166      0.0879  1.008
3042 opls_1061 105 LA   H0Q 166      0.0879  1.008
3043 opls_1062 105 LA   C0R 166     -0.1741 12.011
3044 opls_1063 105 LA   H0S 166      0.0886  1.008
3045 opls_1064 105 LA   H0T 166      0.0886  1.008
3046 opls_1065 105 LA   C0U 166     -0.1731 12.011
3047 opls_1066 105 LA   H0V 166      0.0876  1.008
3048 opls_1067 105 LA   H0W 166      0.0876  1.008
3049 opls_1068 105 LA   C0X 167     -0.1734 12.011
3050 opls_1069 105 LA   H0Y 167       0.087  1.008
3051 opls_1070 105 LA   H0Z 167       0.087  1.008
3052 opls_1071 105 LA   C10 167      -0.176 12.011
3053 opls_1072 105 LA   H11 167      0.0872  1.008
3054 opls_1073 105 LA   H12 167      0.0872  1.008
3055 opls_1074 105 LA   C13 167     -0.1769 12.011
3056 opls_1075 105 LA   H14 167      0.0865  1.008
3057 opls_1076 105 LA   H15 167      0.0865  1.008
3058 opls_1077 105 LA   C16 167     -0.1758 12.011
3059 opls_1078 105 LA   H17 167      0.0861  1.008
3060 opls_1079 105 LA   H18 167      0.0861  1.008
3061 opls_1080 105 LA   C19 167     -0.2355 12.011
3062 opls_1081 105 LA   H1A 167       0.081  1.008
3063 opls_1082 105 LA   H1B 167       0.081  1.008
3064 opls_1083 105 LA   H1C 167       0.081  1.008
3065 opls_1135 106 ST   H00 168  0.10359696  1.008
3066 opls_1136 106 ST   C01 168 -0.20110304 12.011
3067 opls_1137 106 ST   H02 168  0.10359697  1.008
3068 opls_1138 106 ST   H03 168  0.10359697  1.008
3069 opls_1139 106 ST   C04 168 -0.14310303 12.011
3070 opls_1140 106 ST   C05 168 -0.16450303 12.011
3071 opls_1141 106 ST   H06 168  0.15039697  1.008
3072 opls_1142 106 ST   H07 168  0.15039697  1.008
3073 opls_1143 106 ST   C08 168  0.47079697 12.011
3074 opls_1144 106 ST   O09 168 -0.46970303 15.999
3075 opls_1145 106 ST   O0A 168 -0.37860303 15.999
3076 opls_1146 106 ST   C0B 168  0.01369697 12.011
3077 opls_1147 106 ST   H0C 168  0.12039697  1.008
3078 opls_1148 106 ST   H0D 168  0.12039697  1.008
3079 opls_1149 106 ST   C0E 168 -0.21050303 12.011
3080 opls_1150 106 ST   H0F 168  0.10689697  1.008
3081 opls_1151 106 ST   H0G 168  0.10689697  1.008
3082 opls_1152 106 ST   C0H 168 -0.17690303 12.011
3083 opls_1153 106 ST   H0I 168  0.09539697  1.008
3084 opls_1154 106 ST   H0J 168  0.09539697  1.008
3085 opls_1155 106 ST   C0K 168 -0.18200303 12.011
3086 opls_1156 106 ST   H0M 168  0.09069697  1.008
3087 opls_1157 106 ST   H0N 168  0.09069697  1.008
3088 opls_1158 106 ST   C0O 168 -0.17810303 12.011
3089 opls_1159 106 ST   H0P 168  0.08999697  1.008
3090 opls_1160 106 ST   H0Q 168  0.08999697  1.008
3091 opls_1161 106 ST   C0R 168 -0.17550303 12.011
3092 opls_1162 106 ST   H0S 168  0.08789697  1.008
3093 opls_1163 106 ST   H0T 168  0.08789697  1.008
3094 opls_1164 106 ST   C0U 168 -0.17810303 12.011
3095 opls_1165 106 ST   H0V 168  0.08819697  1.008
3096 opls_1166 106 ST   H0W 168  0.08819697  1.008
3097 opls_1167 106 ST   C0X 169 -0.18000303 12.011
3098 opls_1168 106 ST   H0Y 169  0.09189697  1.008
3099 opls_1169 106 ST   H0Z 169  0.09189697  1.008
3100 opls_1170 106 ST   C10 169 -0.17800303 12.011
3101 opls_1171 106 ST   H11 169  0.08809697  1.008
3102 opls_1172 106 ST   H12 169  0.08809697  1.008
3103 opls_1173 106 ST   C13 169 -0.17850303 12.011
3104 opls_1174 106 ST   H14 169  0.08859697  1.008
3105 opls_1175 106 ST   H15 169  0.08859697  1.008
3106 opls_1176 106 ST   C16 169 -0.17980303 12.011
3107 opls_1177 106 ST   H17 169  0.09129697  1.008
3108 opls_1178 106 ST   H18 169  0.09129697  1.008
3109 opls_1179 106 ST   C19 169 -0.17840303 12.011
3110 opls_1180 106 ST   H1A 169  0.08869697  1.008
3111 opls_1181 106 ST   H1B 169  0.08869697  1.008
3112 opls_1182 106 ST   C1C 169 -0.17770303 12.011
3113 opls_1183 106 ST   H1D 169  0.08879697  1.008
3114 opls_1184 106 ST   H1E 169  0.08879697  1.008
3115 opls_1185 106 ST   C1F 169 -0.17950303 12.011
3116 opls_1186 106 ST   H1G 169  0.09049697  1.008
3117 opls_1187 106 ST   H1H 169  0.09049697  1.008
3118 opls_1188 106 ST   C1I 169 -0.18020303 12.011
3119 opls_1189 106 ST   H1J 169  0.08919697  1.008
3120 opls_1190 106 ST   H1K 169  0.08919697  1.008
3121 opls_1191 106 ST   C1M 169 -0.17960303 12.011
3122 opls_1192 106 ST   H1N 169  0.08959697  1.008
3123 opls_1193 106 ST   H1O 169  0.08959697  1.008
3124 opls_1194 106 ST   C1P 169 -0.18080303 12.011
3125 opls_1195 106 ST   H1Q 169  0.08849697  1.008
3126 opls_1196 106 ST   H1R 169  0.08849697  1.008
3127 opls_1197 106 ST   C1S 169 -0.23980303 12.011
3128 opls_1198 106 ST   H1T 169  0.08169697  1.008
3129 opls_1199 106 ST   H1U 169  0.08169697  1.008
3130 opls_1200 106 ST   H1V 170  0.08169697  1.008
3131 opls_1135 107 ST   H00 171  0.10359696  1.008
3132 opls_1136 107 ST   C01 171 -0.20110304 12.011
3133 opls_1137 107 ST   H02 171  0.10359697  1.008
3134 opls_1138 107 ST   H03 171  0.10359697  1.008
3135 opls_1139 107 ST   C04 171 -0.14310303 12.011
3136 opls_1140 107 ST   C05 171 -0.16450303 12.011
3137 opls_1141 107 ST   H06 171  0.15039697  1.008
3138 opls_1142 107 ST   H07 171  0.15039697  1.008
3139 opls_1143 107 ST   C08 171  0.47079697 12.011
3140 opls_1144 107 ST   O09 171 -0.46970303 15.999
3141 opls_1145 107 ST   O0A 171 -0.37860303 15.999
3142 opls_1146 107 ST   C0B 171  0.01369697 12.011
3143 opls_1147 107 ST   H0C 171  0.12039697  1.008
3144 opls_1148 107 ST   H0D 171  0.12039697  1.008
3145 opls_1149 107 ST   C0E 171 -0.21050303 12.011
3146 opls_1150 107 ST   H0F 171  0.10689697  1.008
3147 opls_1151 107 ST   H0G 171  0.10689697  1.008
3148 opls_1152 107 ST   C0H 171 -0.17690303 12.011
3149 opls_1153 107 ST   H0I 171  0.09539697  1.008
3150 opls_1154 107 ST   H0J 171  0.09539697  1.008
3151 opls_1155 107 ST   C0K 171 -0.18200303 12.011
3152 opls_1156 107 ST   H0M 171  0.09069697  1.008
3153 opls_1157 107 ST   H0N 171  0.09069697  1.008
3154 opls_1158 107 ST   C0O 171 -0.17810303 12.011
3155 opls_1159 107 ST   H0P 171  0.08999697  1.008
3156 opls_1160 107 ST   H0Q 171  0.08999697  1.008
3157 opls_1161 107 ST   C0R 171 -0.17550303 12.011
3158 opls_1162 107 ST   H0S 171  0.08789697  1.008
3159 opls_1163 107 ST   H0T 171  0.08789697  1.008
3160 opls_1164 107 ST   C0U 171 -0.17810303 12.011
3161 opls_1165 107 ST   H0V 171  0.08819697  1.008
3162 opls_1166 107 ST   H0W 171  0.08819697  1.008
3163 opls_1167 107 ST   C0X 172 -0.18000303 12.011
3164 opls_1168 107 ST   H0Y 172  0.09189697  1.008
3165 opls_1169 107 ST   H0Z 172  0.09189697  1.008
3166 opls_1170 107 ST   C10 172 -0.17800303 12.011
3167 opls_1171 107 ST   H11 172  0.08809697  1.008
3168 opls_1172 107 ST   H12 172  0.08809697  1.008
3169 opls_1173 107 ST   C13 172 -0.17850303 12.011
3170 opls_1174 107 ST   H14 172  0.08859697  1.008
3171 opls_1175 107 ST   H15 172  0.08859697  1.008
3172 opls_1176 107 ST   C16 172 -0.17980303 12.011
3173 opls_1177 107 ST   H17 172  0.09129697  1.008
3174 opls_1178 107 ST   H18 172  0.09129697  1.008
3175 opls_1179 107 ST   C19 172 -0.17840303 12.011
3176 opls_1180 107 ST   H1A 172  0.08869697  1.008
3177 opls_1181 107 ST   H1B 172  0.08869697  1.008
3178 opls_1182 107 ST   C1C 172 -0.17770303 12.011
3179 opls_1183 107 ST   H1D 172  0.08879697  1.008
3180 opls_1184 107 ST   H1E 172  0.08879697  1.008
3181 opls_1185 107 ST   C1F 172 -0.17950303 12.011
3182 opls_1186 107 ST   H1G 172  0.09049697  1.008
3183 opls_1187 107 ST   H1H 172  0.09049697  1.008
3184 opls_1188 107 ST   C1I 172 -0.18020303 12.011
3185 opls_1189 107 ST   H1J 172  0.08919697  1.008
3186 opls_1190 107 ST   H1K 172  0.08919697  1.008
3187 opls_1191 107 ST   C1M 172 -0.17960303 12.011
3188 opls_1192 107 ST   H1N 172  0.08959697  1.008
3189 opls_1193 107 ST   H1O 172  0.08959697  1.008
3190 opls_1194 107 ST   C1P 172 -0.18080303 12.011
3191 opls_1195 107 ST   H1Q 172  0.08849697  1.008
3192 opls_1196 107 ST   H1R 172  0.08849697  1.008
3193 opls_1197 107 ST   C1S 172 -0.23980303 12.011
3194 opls_1198 107 ST   H1T 172  0.08169697  1.008
3195 opls_1199 107 ST   H1U 172  0.08169697  1.008
3196 opls_1200 107 ST   H1V 173  0.08169697  1.008
3197 opls_1135 108 ST   H00 174  0.10359696  1.008
3198 opls_1136 108 ST   C01 174 -0.20110304 12.011
3199 opls_1137 108 ST   H02 174  0.10359697  1.008
3200 opls_1138 108 ST   H03 174  0.10359697  1.008
3201 opls_1139 108 ST   C04 174 -0.14310303 12.011
3202 opls_1140 108 ST   C05 174 -0.16450303 12.011
3203 opls_1141 108 ST   H06 174  0.15039697  1.008
3204 opls_1142 108 ST   H07 174  0.15039697  1.008
3205 opls_1143 108 ST   C08 174  0.47079697 12.011
3206 opls_1144 108 ST   O09 174 -0.46970303 15.999
3207 opls_1145 108 ST   O0A 174 -0.37860303 15.999
3208 opls_1146 108 ST   C0B 174  0.01369697 12.011
3209 opls_1147 108 ST   H0C 174  0.12039697  1.008
3210 opls_1148 108 ST   H0D 174  0.12039697  1.008
3211 opls_1149 108 ST   C0E 174 -0.21050303 12.011
3212 opls_1150 108 ST   H0F 174  0.10689697  1.008
3213 opls_1151 108 ST   H0G 174  0.10689697  1.008
3214 opls_1152 108 ST   C0H 174 -0.17690303 12.011
3215 opls_1153 108 ST   H0I 174  0.09539697  1.008
3216 opls_1154 108 ST   H0J 174  0.09539697  1.008
3217 opls_1155 108 ST   C0K 174 -0.18200303 12.011
3218 opls_1156 108 ST   H0M 174  0.09069697  1.008
3219 opls_1157 108 ST   H0N 174  0.09069697  1.008
3220 opls_1158 108 ST   C0O 174 -0.17810303 12.011
3221 opls_1159 108 ST   H0P 174  0.08999697  1.008
3222 opls_1160 108 ST   H0Q 174  0.08999697  1.008
3223 opls_1161 108 ST   C0R 174 -0.17550303 12.011
3224 opls_1162 108 ST   H0S 174  0.08789697  1.008
3225 opls_1163 108 ST   H0T 174  0.08789697  1.008
3226 opls_1164 108 ST   C0U 174 -0.17810303 12.011
3227 opls_1165 108 ST   H0V 174  0.08819697  1.008
3228 opls_1166 108 ST   H0W 174  0.08819697  1.008
3229 opls_1167 108 ST   C0X 175 -0.18000303 12.011
3230 opls_1168 108 ST   H0Y 175  0.09189697  1.008
3231 opls_1169 108 ST   H0Z 175  0.09189697  1.008
3232 opls_1170 108 ST   C10 175 -0.17800303 12.011
3233 opls_1171 108 ST   H11 175  0.08809697  1.008
3234 opls_1172 108 ST   H12 175  0.08809697  1.008
3235 opls_1173 108 ST   C13 175 -0.17850303 12.011
3236 opls_1174 108 ST   H14 175  0.08859697  1.008
3237 opls_1175 108 ST   H15 175  0.08859697  1.008
3238 opls_1176 108 ST   C16 175 -0.17980303 12.011
3239 opls_1177 108 ST   H17 175  0.09129697  1.008
3240 opls_1178 108 ST   H18 175  0.09129697  1.008
3241 opls_1179 108 ST   C19 175 -0.17840303 12.011
3242 opls_1180 108 ST   H1A 175  0.08869697  1.008
3243 opls_1181 108 ST   H1B 175  0.08869697  1.008
3244 opls_1182 108 ST   C1C 175 -0.17770303 12.011
3245 opls_1183 108 ST   H1D 175  0.08879697  1.008
3246 opls_1184 108 ST   H1E 175  0.08879697  1.008
3247 opls_1185 108 ST   C1F 175 -0.17950303 12.011
3248 opls_1186 108 ST   H1G 175  0.09049697  1.008
3249 opls_1187 108 ST   H1H 175  0.09049697  1.008
3250 opls_1188 108 ST   C1I 175 -0.18020303 12.011
3251 opls_1189 108 ST   H1J 175  0.08919697  1.008
3252 opls_1190 108 ST   H1K 175  0.08919697  1.008
3253 opls_1191 108 ST   C1M 175 -0.17960303 12.011
3254 opls_1192 108 ST   H1N 175  0.08959697  1.008
3255 opls_1193 108 ST   H1O 175  0.08959697  1.008
3256 opls_1194 108 ST   C1P 175 -0.18080303 12.011
3257 opls_1195 108 ST   H1Q 175  0.08849697  1.008
3258 opls_1196 108 ST   H1R 175  0.08849697  1.008
3259 opls_1197 108 ST   C1S 175 -0.23980303 12.011
3260 opls_1198 108 ST   H1T 175  0.08169697  1.008
3261 opls_1199 108 ST   H1U 175  0.08169697  1.008
3262 opls_1200 108 ST   H1V 176  0.08169697  1.008
3263 opls_1000 109 EH   H00 177  0.10189445  1.008
3264 opls_1001 109 EH   C01 177 -0.19260555 12.011
3265 opls_1002 109 EH   H02 177  0.10189445  1.008
3266 opls_1003 109 EH   H03 177  0.10189445  1.008
3267 opls_1004 109 EH   C04 177 -0.15320555 12.011
3268 opls_1005 109 EH   C05 177 -0.16930555 12.011
3269 opls_1006 109 EH   H06 177  0.14479445  1.008
3270 opls_1007 109 EH   H07 177  0.14479445  1.008
3271 opls_1008 109 EH   C08 177  0.47689445 12.011
3272 opls_1009 109 EH   O09 177 -0.46140555 15.999
3273 opls_1010 109 EH   O0A 177 -0.37160555 15.999
3274 opls_1011 109 EH   C0B 177  0.01739445 12.011
3275 opls_1012 109 EH   H0C 177  0.10599445  1.008
3276 opls_1013 109 EH   H0D 177  0.10599445  1.008
3277 opls_1014 109 EH   C0E 177 -0.11380555 12.011
3278 opls_1015 109 EH   H0F 177  0.10879445  1.008
3279 opls_1016 109 EH   C0G 177 -0.17230556 12.011
3280 opls_1017 109 EH   H0H 177  0.09059444  1.008
3281 opls_1018 109 EH   H0I 177  0.09059444  1.008
3282 opls_1019 109 EH   C0J 177 -0.23440556 12.011
3283 opls_1020 109 EH   H0K 177  0.08389444  1.008
3284 opls_1021 109 EH   H0M 177  0.08389444  1.008
3285 opls_1022 109 EH   H0N 177  0.08389444  1.008
3286 opls_1023 109 EH   C0O 177 -0.16680556 12.011
3287 opls_1024 109 EH   H0P 177  0.09399444  1.008
3288 opls_1025 109 EH   H0Q 177  0.09399444  1.008
3289 opls_1026 109 EH   C0R 177 -0.17620556 12.011
3290 opls_1027 109 EH   H0S 177  0.08869444  1.008
3291 opls_1028 109 EH   H0T 177  0.08869444  1.008
3292 opls_1029 109 EH   C0U 177 -0.17710556 12.011
3293 opls_1030 109 EH   H0V 177  0.08599444  1.008
3294 opls_1031 109 EH   H0W 177  0.08599444  1.008
3295 opls_1032 109 EH   C0X 178 -0.23570556 12.011
3296 opls_1033 109 EH   H0Y 178  0.08129444  1.008
3297 opls_1034 109 EH   H0Z 178  0.08129444  1.008
3298 opls_1035 109 EH   H10 178  0.08129444  1.008
3299 opls_1036 110 LA   H00 179      0.1018  1.008
3300 opls_1037 110 LA   C01 179     -0.1925 12.011
3301 opls_1038 110 LA   H02 179      0.1018  1.008
3302 opls_1039 110 LA   H03 179      0.1018  1.008
3303 opls_1040 110 LA   C04 179      -0.154 12.011
3304 opls_1041 110 LA   C05 179     -0.1693 12.011
3305 opls_1042 110 LA   H06 179       0.145  1.008
3306 opls_1043 110 LA   H07 179       0.145  1.008
3307 opls_1044 110 LA   C08 179      0.4759 12.011
3308 opls_1045 110 LA   O09 179     -0.4618 15.999
3309 opls_1046 110 LA   O0A 179     -0.3719 15.999
3310 opls_1047 110 LA   C0B 179      0.0179 12.011
3311 opls_1048 110 LA   H0C 179      0.1065  1.008
3312 opls_1049 110 LA   H0D 179      0.1065  1.008
3313 opls_1050 110 LA   C0E 179     -0.1807 12.011
3314 opls_1051 110 LA   H0F 179      0.1036  1.008
3315 opls_1052 110 LA   H0G 179      0.1036  1.008
3316 opls_1053 110 LA   C0H 179     -0.1746 12.011
3317 opls_1054 110 LA   H0I 179      0.0946  1.008
3318 opls_1055 110 LA   H0J 179      0.0946  1.008
3319 opls_1056 110 LA   C0K 179     -0.1762 12.011
3320 opls_1057 110 LA   H0M 179      0.0878  1.008
3321 opls_1058 110 LA   H0N 179      0.0878  1.008
3322 opls_1059 110 LA   C0O 179     -0.1732 12.011
3323 opls_1060 110 LA   H0P 179      0.0879  1.008
3324 opls_1061 110 LA   H0Q 179      0.0879  1.008
3325 opls_1062 110 LA   C0R 179     -0.1741 12.011
3326 opls_1063 110 LA   H0S 179      0.0886  1.008
3327 opls_1064 110 LA   H0T 179      0.0886  1.008
3328 opls_1065 110 LA   C0U 179     -0.1731 12.011
3329 opls_1066 110 LA   H0V 179      0.0876  1.008
3330 opls_1067 110 LA   H0W 179      0.0876  1.008
3331 opls_1068 110 LA   C0X 180     -0.1734 12.011
3332 opls_1069 110 LA   H0Y 180       0.087  1.008
3333 opls_1070 110 LA   H0Z 180       0.087  1.008
3334 opls_1071 110 LA   C10 180      -0.176 12.011
3335 opls_1072 110 LA   H11 180      0.0872  1.008
3336 opls_1073 110 LA   H12 180      0.0872  1.008
3337 opls_1074 110 LA   C13 180     -0.1769 12.011
3338 opls_1075 110 LA   H14 180      0.0865  1.008
3339 opls_1076 110 LA   H15 180      0.0865  1.008
3340 opls_1077 110 LA   C16 180     -0.1758 12.011
3341 opls_1078 110 LA   H17 180      0.0861  1.008
3342 opls_1079 110 LA   H18 180      0.0861  1.008
3343 opls_1080 110 LA   C19 180     -0.2355 12.011
3344 opls_1081 110 LA   H1A 180       0.081  1.008
3345 opls_1082 110 LA   H1B 180       0.081  1.008
3346 opls_1083 110 LA   H1C 180       0.081  1.008
3347 opls_1135 111 ST   H00 181  0.10359696  1.008
3348 opls_1136 111 ST   C01 181 -0.20110304 12.011
3349 opls_1137 111 ST   H02 181  0.10359697  1.008
3350 opls_1138 111 ST   H03 181  0.10359697  1.008
3351 opls_1139 111 ST   C04 181 -0.14310303 12.011
3352 opls_1140 111 ST   C05 181 -0.16450303 12.011
3353 opls_1141 111 ST   H06 181  0.15039697  1.008
3354 opls_1142 111 ST   H07 181  0.15039697  1.008
3355 opls_1143 111 ST   C08 181  0.47079697 12.011
3356 opls_1144 111 ST   O09 181 -0.46970303 15.999
3357 opls_1145 111 ST   O0A 181 -0.37860303 15.999
3358 opls_1146 111 ST   C0B 181  0.01369697 12.011
3359 opls_1147 111 ST   H0C 181  0.12039697  1.008
3360 opls_1148 111 ST   H0D 181  0.12039697  1.008
3361 opls_1149 111 ST   C0E 181 -0.21050303 12.011
3362 opls_1150 111 ST   H0F 181  0.10689697  1.008
3363 opls_1151 111 ST   H0G 181  0.10689697  1.008
3364 opls_1152 111 ST   C0H 181 -0.17690303 12.011
3365 opls_1153 111 ST   H0I 181  0.09539697  1.008
3366 opls_1154 111 ST   H0J 181  0.09539697  1.008
3367 opls_1155 111 ST   C0K 181 -0.18200303 12.011
3368 opls_1156 111 ST   H0M 181  0.09069697  1.008
3369 opls_1157 111 ST   H0N 181  0.09069697  1.008
3370 opls_1158 111 ST   C0O 181 -0.17810303 12.011
3371 opls_1159 111 ST   H0P 181  0.08999697  1.008
3372 opls_1160 111 ST   H0Q 181  0.08999697  1.008
3373 opls_1161 111 ST   C0R 181 -0.17550303 12.011
3374 opls_1162 111 ST   H0S 181  0.08789697  1.008
3375 opls_1163 111 ST   H0T 181  0.08789697  1.008
3376 opls_1164 111 ST   C0U 181 -0.17810303 12.011
3377 opls_1165 111 ST   H0V 181  0.08819697  1.008
3378 opls_1166 111 ST   H0W 181  0.08819697  1.008
3379 opls_1167 111 ST   C0X 182 -0.18000303 12.011
3380 opls_1168 111 ST   H0Y 182  0.09189697  1.008
3381 opls_1169 111 ST   H0Z 182  0.09189697  1.008
3382 opls_1170 111 ST   C10 182 -0.17800303 12.011
3383 opls_1171 111 ST   H11 182  0.08809697  1.008
3384 opls_1172 111 ST   H12 182  0.08809697  1.008
3385 opls_1173 111 ST   C13 182 -0.17850303 12.011
3386 opls_1174 111 ST   H14 182  0.08859697  1.008
3387 opls_1175 111 ST   H15 182  0.08859697  1.008
3388 opls_1176 111 ST   C16 182 -0.17980303 12.011
3389 opls_1177 111 ST   H17 182  0.09129697  1.008
3390 opls_1178 111 ST   H18 182  0.09129697  1.008
3391 opls_1179 111 ST   C19 182 -0.17840303 12.011
3392 opls_1180 111 ST   H1A 182  0.08869697  1.008
3393 opls_1181 111 ST   H1B 182  0.08869697  1.008
3394 opls_1182 111 ST   C1C 182 -0.17770303 12.011
3395 opls_1183 111 ST   H1D 182  0.08879697  1.008
3396 opls_1184 111 ST   H1E 182  0.08879697  1.008
3397 opls_1185 111 ST   C1F 182 -0.17950303 12.011
3398 opls_1186 111 ST   H1G 182  0.09049697  1.008
3399 opls_1187 111 ST   H1H 182  0.09049697  1.008
3400 opls_1188 111 ST   C1I 182 -0.18020303 12.011
3401 opls_1189 111 ST   H1J 182  0.08919697  1.008
3402 opls_1190 111 ST   H1K 182  0.08919697  1.008
3403 opls_1191 111 ST   C1M 182 -0.17960303 12.011
3404 opls_1192 111 ST   H1N 182  0.08959697  1.008
3405 opls_1193 111 ST   H1O 182  0.08959697  1.008
3406 opls_1194 111 ST   C1P 182 -0.18080303 12.011
3407 opls_1195 111 ST   H1Q 182  0.08849697  1.008
3408 opls_1196 111 ST   H1R 182  0.08849697  1.008
3409 opls_1197 111 ST   C1S 182 -0.23980303 12.011
3410 opls_1198 111 ST   H1T 182  0.08169697  1.008
3411 opls_1199 111 ST   H1U 182  0.08169697  1.008
3412 opls_1200 111 ST   H1V 183  0.08169697  1.008
3413 opls_1000 112 EH   H00 184  0.10189445  1.008
3414 opls_1001 112 EH   C01 184 -0.19260555 12.011
3415 opls_1002 112 EH   H02 184  0.10189445  1.008
3416 opls_1003 112 EH   H03 184  0.10189445  1.008
3417 opls_1004 112 EH   C04 184 -0.15320555 12.011
3418 opls_1005 112 EH   C05 184 -0.16930555 12.011
3419 opls_1006 112 EH   H06 184  0.14479445  1.008
3420 opls_1007 112 EH   H07 184  0.14479445  1.008
3421 opls_1008 112 EH   C08 184  0.47689445 12.011
3422 opls_1009 112 EH   O09 184 -0.46140555 15.999
3423 opls_1010 112 EH   O0A 184 -0.37160555 15.999
3424 opls_1011 112 EH   C0B 184  0.01739445 12.011
3425 opls_1012 112 EH   H0C 184  0.10599445  1.008
3426 opls_1013 112 EH   H0D 184  0.10599445  1.008
3427 opls_1014 112 EH   C0E 184 -0.11380555 12.011
3428 opls_1015 112 EH   H0F 184  0.10879445  1.008
3429 opls_1016 112 EH   C0G 184 -0.17230556 12.011
3430 opls_1017 112 EH   H0H 184  0.09059444  1.008
3431 opls_1018 112 EH   H0I 184  0.09059444  1.008
3432 opls_1019 112 EH   C0J 184 -0.23440556 12.011
3433 opls_1020 112 EH   H0K 184  0.08389444  1.008
3434 opls_1021 112 EH   H0M 184  0.08389444  1.008
3435 opls_1022 112 EH   H0N 184  0.08389444  1.008
3436 opls_1023 112 EH   C0O 184 -0.16680556 12.011
3437 opls_1024 112 EH   H0P 184  0.09399444  1.008
3438 opls_1025 112 EH   H0Q 184  0.09399444  1.008
3439 opls_1026 112 EH   C0R 184 -0.17620556 12.011
3440 opls_1027 112 EH   H0S 184  0.08869444  1.008
3441 opls_1028 112 EH   H0T 184  0.08869444  1.008
3442 opls_1029 112 EH   C0U 184 -0.17710556 12.011
3443 opls_1030 112 EH   H0V 184  0.08599444  1.008
3444 opls_1031 112 EH   H0W 184  0.08599444  1.008
3445 opls_1032 112 EH   C0X 185 -0.23570556 12.011
3446 opls_1033 112 EH   H0Y 185  0.08129444  1.008
3447 opls_1034 112 EH   H0Z 185  0.08129444  1.008
3448 opls_1035 112 EH   H10 185  0.08129444  1.008
3449 opls_1036 113 LA   H00 186      0.1018  1.008
3450 opls_1037 113 LA   C01 186     -0.1925 12.011
3451 opls_1038 113 LA   H02 186      0.1018  1.008
3452 opls_1039 113 LA   H03 186      0.1018  1.008
3453 opls_1040 113 LA   C04 186      -0.154 12.011
3454 opls_1041 113 LA   C05 186     -0.1693 12.011
3455 opls_1042 113 LA   H06 186       0.145  1.008
3456 opls_1043 113 LA   H07 186       0.145  1.008
3457 opls_1044 113 LA   C08 186      0.4759 12.011
3458 opls_1045 113 LA   O09 186     -0.4618 15.999
3459 opls_1046 113 LA   O0A 186     -0.3719 15.999
3460 opls_1047 113 LA   C0B 186      0.0179 12.011
3461 opls_1048 113 LA   H0C 186      0.1065  1.008
3462 opls_1049 113 LA   H0D 186      0.1065  1.008
3463 opls_1050 113 LA   C0E 186     -0.1807 12.011
3464 opls_1051 113 LA   H0F 186      0.1036  1.008
3465 opls_1052 113 LA   H0G 186      0.1036  1.008
3466 opls_1053 113 LA   C0H 186     -0.1746 12.011
3467 opls_1054 113 LA   H0I 186      0.0946  1.008
3468 opls_1055 113 LA   H0J 186      0.0946  1.008
3469 opls_1056 113 LA   C0K 186     -0.1762 12.011
3470 opls_1057 113 LA   H0M 186      0.0878  1.008
3471 opls_1058 113 LA   H0N 186      0.0878  1.008
3472 opls_1059 113 LA   C0O 186     -0.1732 12.011
3473 opls_1060 113 LA   H0P 186      0.0879  1.008
3474 opls_1061 113 LA   H0Q 186      0.0879  1.008
3475 opls_1062 113 LA   C0R 186     -0.1741 12.011
3476 opls_1063 113 LA   H0S 186      0.0886  1.008
3477 opls_1064 113 LA   H0T 186      0.0886  1.008
3478 opls_1065 113 LA   C0U 186     -0.1731 12.011
3479 opls_1066 113 LA   H0V 186      0.0876  1.008
3480 opls_1067 113 LA   H0W 186      0.0876  1.008
3481 opls_1068 113 LA   C0X 187     -0.1734 12.011
3482 opls_1069 113 LA   H0Y 187       0.087  1.008
3483 opls_1070 113 LA   H0Z 187       0.087  1.008
3484 opls_1071 113 LA   C10 187      -0.176 12.011
3485 opls_1072 113 LA   H11 187      0.0872  1.008
3486 opls_1073 113 LA   H12 187      0.0872  1.008
3487 opls_1074 113 LA   C13 187     -0.1769 12.011
3488 opls_1075 113 LA   H14 187      0.0865  1.008
3489 opls_1076 113 LA   H15 187      0.0865  1.008
3490 opls_1077 113 LA   C16 187     -0.1758 12.011
3491 opls_1078 113 LA   H17 187      0.0861  1.008
3492 opls_1079 113 LA   H18 187      0.0861  1.008
3493 opls_1080 113 LA   C19 187     -0.2355 12.011
3494 opls_1081 113 LA   H1A 187       0.081  1.008
3495 opls_1082 113 LA   H1B 187       0.081  1.008
3496 opls_1083 113 LA   H1C 187       0.081  1.008
3497 opls_1000 114 EH   H00 188  0.10189445  1.008
3498 opls_1001 114 EH   C01 188 -0.19260555 12.011
3499 opls_1002 114 EH   H02 188  0.10189445  1.008
3500 opls_1003 114 EH   H03 188  0.10189445  1.008
3501 opls_1004 114 EH   C04 188 -0.15320555 12.011
3502 opls_1005 114 EH   C05 188 -0.16930555 12.011
3503 opls_1006 114 EH   H06 188  0.14479445  1.008
3504 opls_1007 114 EH   H07 188  0.14479445  1.008
3505 opls_1008 114 EH   C08 188  0.47689445 12.011
3506 opls_1009 114 EH   O09 188 -0.46140555 15.999
3507 opls_1010 114 EH   O0A 188 -0.37160555 15.999
3508 opls_1011 114 EH   C0B 188  0.01739445 12.011
3509 opls_1012 114 EH   H0C 188  0.10599445  1.008
3510 opls_1013 114 EH   H0D 188  0.10599445  1.008
3511 opls_1014 114 EH   C0E 188 -0.11380555 12.011
3512 opls_1015 114 EH   H0F 188  0.10879445  1.008
3513 opls_1016 114 EH   C0G 188 -0.17230556 12.011
3514 opls_1017 114 EH   H0H 188  0.09059444  1.008
3515 opls_1018 114 EH   H0I 188  0.09059444  1.008
3516 opls_1019 114 EH   C0J 188 -0.23440556 12.011
3517 opls_1020 114 EH   H0K 188  0.08389444  1.008
3518 opls_1021 114 EH   H0M 188  0.08389444  1.008
3519 opls_1022 114 EH   H0N 188  0.08389444  1.008
3520 opls_1023 114 EH   C0O 188 -0.16680556 12.011
3521 opls_1024 114 EH   H0P 188  0.09399444  1.008
3522 opls_1025 114 EH   H0Q 188  0.09399444  1.008
3523 opls_1026 114 EH   C0R 188 -0.17620556 12.011
3524 opls_1027 114 EH   H0S 188  0.08869444  1.008
3525 opls_1028 114 EH   H0T 188  0.08869444  1.008
3526 opls_1029 114 EH   C0U 188 -0.17710556 12.011
3527 opls_1030 114 EH   H0V 188  0.08599444  1.008
3528 opls_1031 114 EH   H0W 188  0.08599444  1.008
3529 opls_1032 114 EH   C0X 189 -0.23570556 12.011
3530 opls_1033 114 EH   H0Y 189  0.08129444  1.008
3531 opls_1034 114 EH   H0Z 189  0.08129444  1.008
3532 opls_1035 114 EH   H10 189  0.08129444  1.008
3533 opls_1000 115 EH   H00 190  0.10189445  1.008
3534 opls_1001 115 EH   C01 190 -0.19260555 12.011
3535 opls_1002 115 EH   H02 190  0.10189445  1.008
3536 opls_1003 115 EH   H03 190  0.10189445  1.008
3537 opls_1004 115 EH   C04 190 -0.15320555 12.011
3538 opls_1005 115 EH   C05 190 -0.16930555 12.011
3539 opls_1006 115 EH   H06 190  0.14479445  1.008
3540 opls_1007 115 EH   H07 190  0.14479445  1.008
3541 opls_1008 115 EH   C08 190  0.47689445 12.011
3542 opls_1009 115 EH   O09 190 -0.46140555 15.999
3543 opls_1010 115 EH   O0A 190 -0.37160555 15.999
3544 opls_1011 115 EH   C0B 190  0.01739445 12.011
3545 opls_1012 115 EH   H0C 190  0.10599445  1.008
3546 opls_1013 115 EH   H0D 190  0.10599445  1.008
3547 opls_1014 115 EH   C0E 190 -0.11380555 12.011
3548 opls_1015 115 EH   H0F 190  0.10879445  1.008
3549 opls_1016 115 EH   C0G 190 -0.17230556 12.011
3550 opls_1017 115 EH   H0H 190  0.09059444  1.008
3551 opls_1018 115 EH   H0I 190  0.09059444  1.008
3552 opls_1019 115 EH   C0J 190 -0.23440556 12.011
3553 opls_1020 115 EH   H0K 190  0.08389444  1.008
3554 opls_1021 115 EH   H0M 190  0.08389444  1.008
3555 opls_1022 115 EH   H0N 190  0.08389444  1.008
3556 opls_1023 115 EH   C0O 190 -0.16680556 12.011
3557 opls_1024 115 EH   H0P 190  0.09399444  1.008
3558 opls_1025 115 EH   H0Q 190  0.09399444  1.008
3559 opls_1026 115 EH   C0R 190 -0.17620556 12.011
3560 opls_1027 115 EH   H0S 190  0.08869444  1.008
3561 opls_1028 115 EH   H0T 190  0.08869444  1.008
3562 opls_1029 115 EH   C0U 190 -0.17710556 12.011
3563 opls_1030 115 EH   H0V 190  0.08599444  1.008
3564 opls_1031 115 EH   H0W 190  0.08599444  1.008
3565 opls_1032 115 EH   C0X 191 -0.23570556 12.011
3566 opls_1033 115 EH   H0Y 191  0.08129444  1.008
3567 opls_1034 115 EH   H0Z 191  0.08129444  1.008
3568 opls_1035 115 EH   H10 191  0.08129444  1.008
3569 opls_1000 116 EH   H00 192  0.10189445  1.008
3570 opls_1001 116 EH   C01 192 -0.19260555 12.011
3571 opls_1002 116 EH   H02 192  0.10189445  1.008
3572 opls_1003 116 EH   H03 192  0.10189445  1.008
3573 opls_1004 116 EH   C04 192 -0.15320555 12.011
3574 opls_1005 116 EH   C05 192 -0.16930555 12.011
3575 opls_1006 116 EH   H06 192  0.14479445  1.008
3576 opls_1007 116 EH   H07 192  0.14479445  1.008
3577 opls_1008 116 EH   C08 192  0.47689445 12.011
3578 opls_1009 116 EH   O09 192 -0.46140555 15.999
3579 opls_1010 116 EH   O0A 192 -0.37160555 15.999
3580 opls_1011 116 EH   C0B 192  0.01739445 12.011
3581 opls_1012 116 EH   H0C 192  0.10599445  1.008
3582 opls_1013 116 EH   H0D 192  0.10599445  1.008
3583 opls_1014 116 EH   C0E 192 -0.11380555 12.011
3584 opls_1015 116 EH   H0F 192  0.10879445  1.008
3585 opls_1016 116 EH   C0G 192 -0.17230556 12.011
3586 opls_1017 116 EH   H0H 192  0.09059444  1.008
3587 opls_1018 116 EH   H0I 192  0.09059444  1.008
3588 opls_1019 116 EH   C0J 192 -0.23440556 12.011
3589 opls_1020 116 EH   H0K 192  0.08389444  1.008
3590 opls_1021 116 EH   H0M 192  0.08389444  1.008
3591 opls_1022 116 EH   H0N 192  0.08389444  1.008
3592 opls_1023 116 EH   C0O 192 -0.16680556 12.011
3593 opls_1024 116 EH   H0P 192  0.09399444  1.008
3594 opls_1025 116 EH   H0Q 192  0.09399444  1.008
3595 opls_1026 116 EH   C0R 192 -0.17620556 12.011
3596 opls_1027 116 EH   H0S 192  0.08869444  1.008
3597 opls_1028 116 EH   H0T 192  0.08869444  1.008
3598 opls_1029 116 EH   C0U 192 -0.17710556 12.011
3599 opls_1030 116 EH   H0V 192  0.08599444  1.008
3600 opls_1031 116 EH   H0W 192  0.08599444  1.008
3601 opls_1032 116 EH   C0X 193 -0.23570556 12.011
3602 opls_1033 116 EH   H0Y 193  0.08129444  1.008
3603 opls_1034 116 EH   H0Z 193  0.08129444  1.008
3604 opls_1035 116 EH   H10 193  0.08129444  1.008
3605 opls_1036 117 LA   H00 194      0.1018  1.008
3606 opls_1037 117 LA   C01 194     -0.1925 12.011
3607 opls_1038 117 LA   H02 194      0.1018  1.008
3608 opls_1039 117 LA   H03 194      0.1018  1.008
3609 opls_1040 117 LA   C04 194      -0.154 12.011
3610 opls_1041 117 LA   C05 194     -0.1693 12.011
3611 opls_1042 117 LA   H06 194       0.145  1.008
3612 opls_1043 117 LA   H07 194       0.145  1.008
3613 opls_1044 117 LA   C08 194      0.4759 12.011
3614 opls_1045 117 LA   O09 194     -0.4618 15.999
3615 opls_1046 117 LA   O0A 194     -0.3719 15.999
3616 opls_1047 117 LA   C0B 194      0.0179 12.011
3617 opls_1048 117 LA   H0C 194      0.1065  1.008
3618 opls_1049 117 LA   H0D 194      0.1065  1.008
3619 opls_1050 117 LA   C0E 194     -0.1807 12.011
3620 opls_1051 117 LA   H0F 194      0.1036  1.008
3621 opls_1052 117 LA   H0G 194      0.1036  1.008
3622 opls_1053 117 LA   C0H 194     -0.1746 12.011
3623 opls_1054 117 LA   H0I 194      0.0946  1.008
3624 opls_1055 117 LA   H0J 194      0.0946  1.008
3625 opls_1056 117 LA   C0K 194     -0.1762 12.011
3626 opls_1057 117 LA   H0M 194      0.0878  1.008
3627 opls_1058 117 LA   H0N 194      0.0878  1.008
3628 opls_1059 117 LA   C0O 194     -0.1732 12.011
3629 opls_1060 117 LA   H0P 194      0.0879  1.008
3630 opls_1061 117 LA   H0Q 194      0.0879  1.008
3631 opls_1062 117 LA   C0R 194     -0.1741 12.011
3632 opls_1063 117 LA   H0S 194      0.0886  1.008
3633 opls_1064 117 LA   H0T 194      0.0886  1.008
3634 opls_1065 117 LA   C0U 194     -0.1731 12.011
3635 opls_1066 117 LA   H0V 194      0.0876  1.008
3636 opls_1067 117 LA   H0W 194      0.0876  1.008
3637 opls_1068 117 LA   C0X 195     -0.1734 12.011
3638 opls_1069 117 LA   H0Y 195       0.087  1.008
3639 opls_1070 117 LA   H0Z 195       0.087  1.008
3640 opls_1071 117 LA   C10 195      -0.176 12.011
3641 opls_1072 117 LA   H11 195      0.0872  1.008
3642 opls_1073 117 LA   H12 195      0.0872  1.008
3643 opls_1074 117 LA   C13 195     -0.1769 12.011
3644 opls_1075 117 LA   H14 195      0.0865  1.008
3645 opls_1076 117 LA   H15 195      0.0865  1.008
3646 opls_1077 117 LA   C16 195     -0.1758 12.011
3647 opls_1078 117 LA   H17 195      0.0861  1.008
3648 opls_1079 117 LA   H18 195      0.0861  1.008
3649 opls_1080 117 LA   C19 195     -0.2355 12.011
3650 opls_1081 117 LA   H1A 195       0.081  1.008
3651 opls_1082 117 LA   H1B 195       0.081  1.008
3652 opls_1083 117 LA   H1C 195       0.081  1.008
3653 opls_1135 118 ST   H00 196  0.10359696  1.008
3654 opls_1136 118 ST   C01 196 -0.20110304 12.011
3655 opls_1137 118 ST   H02 196  0.10359697  1.008
3656 opls_1138 118 ST   H03 196  0.10359697  1.008
3657 opls_1139 118 ST   C04 196 -0.14310303 12.011
3658 opls_1140 118 ST   C05 196 -0.16450303 12.011
3659 opls_1141 118 ST   H06 196  0.15039697  1.008
3660 opls_1142 118 ST   H07 196  0.15039697  1.008
3661 opls_1143 118 ST   C08 196  0.47079697 12.011
3662 opls_1144 118 ST   O09 196 -0.46970303 15.999
3663 opls_1145 118 ST   O0A 196 -0.37860303 15.999
3664 opls_1146 118 ST   C0B 196  0.01369697 12.011
3665 opls_1147 118 ST   H0C 196  0.12039697  1.008
3666 opls_1148 118 ST   H0D 196  0.12039697  1.008
3667 opls_1149 118 ST   C0E 196 -0.21050303 12.011
3668 opls_1150 118 ST   H0F 196  0.10689697  1.008
3669 opls_1151 118 ST   H0G 196  0.10689697  1.008
3670 opls_1152 118 ST   C0H 196 -0.17690303 12.011
3671 opls_1153 118 ST   H0I 196  0.09539697  1.008
3672 opls_1154 118 ST   H0J 196  0.09539697  1.008
3673 opls_1155 118 ST   C0K 196 -0.18200303 12.011
3674 opls_1156 118 ST   H0M 196  0.09069697  1.008
3675 opls_1157 118 ST   H0N 196  0.09069697  1.008
3676 opls_1158 118 ST   C0O 196 -0.17810303 12.011
3677 opls_1159 118 ST   H0P 196  0.08999697  1.008
3678 opls_1160 118 ST   H0Q 196  0.08999697  1.008
3679 opls_1161 118 ST   C0R 196 -0.17550303 12.011
3680 opls_1162 118 ST   H0S 196  0.08789697  1.008
3681 opls_1163 118 ST   H0T 196  0.08789697  1.008
3682 opls_1164 118 ST   C0U 196 -0.17810303 12.011
3683 opls_1165 118 ST   H0V 196  0.08819697  1.008
3684 opls_1166 118 ST   H0W 196  0.08819697  1.008
3685 opls_1167 118 ST   C0X 197 -0.18000303 12.011
3686 opls_1168 118 ST   H0Y 197  0.09189697  1.008
3687 opls_1169 118 ST   H0Z 197  0.09189697  1.008
3688 opls_1170 118 ST   C10 197 -0.17800303 12.011
3689 opls_1171 118 ST   H11 197  0.08809697  1.008
3690 opls_1172 118 ST   H12 197  0.08809697  1.008
3691 opls_1173 118 ST   C13 197 -0.17850303 12.011
3692 opls_1174 118 ST   H14 197  0.08859697  1.008
3693 opls_1175 118 ST   H15 197  0.08859697  1.008
3694 opls_1176 118 ST   C16 197 -0.17980303 12.011
3695 opls_1177 118 ST   H17 197  0.09129697  1.008
3696 opls_1178 118 ST   H18 197  0.09129697  1.008
3697 opls_1179 118 ST   C19 197 -0.17840303 12.011
3698 opls_1180 118 ST   H1A 197  0.08869697  1.008
3699 opls_1181 118 ST   H1B 197  0.08869697  1.008
3700 opls_1182 118 ST   C1C 197 -0.17770303 12.011
3701 opls_1183 118 ST   H1D 197  0.08879697  1.008
3702 opls_1184 118 ST   H1E 197  0.08879697  1.008
3703 opls_1185 118 ST   C1F 197 -0.17950303 12.011
3704 opls_1186 118 ST   H1G 197  0.09049697  1.008
3705 opls_1187 118 ST   H1H 197  0.09049697  1.008
3706 opls_1188 118 ST   C1I 197 -0.18020303 12.011
3707 opls_1189 118 ST   H1J 197  0.08919697  1.008
3708 opls_1190 118 ST   H1K 197  0.08919697  1.008
3709 opls_1191 118 ST   C1M 197 -0.17960303 12.011
3710 opls_1192 118 ST   H1N 197  0.08959697  1.008
3711 opls_1193 118 ST   H1O 197  0.08959697  1.008
3712 opls_1194 118 ST   C1P 197 -0.18080303 12.011
3713 opls_1195 118 ST   H1Q 197  0.08849697  1.008
3714 opls_1196 118 ST   H1R 197  0.08849697  1.008
3715 opls_1197 118 ST   C1S 197 -0.23980303 12.011
3716 opls_1198 118 ST   H1T 197  0.08169697  1.008
3717 opls_1199 118 ST   H1U 197  0.08169697  1.008
3718 opls_1200 118 ST   H1V 198  0.08169697  1.008
3719 opls_1000 119 EH   H00 199  0.10189445  1.008
3720 opls_1001 119 EH   C01 199 -0.19260555 12.011
3721 opls_1002 119 EH   H02 199  0.10189445  1.008
3722 opls_1003 119 EH   H03 199  0.10189445  1.008
3723 opls_1004 119 EH   C04 199 -0.15320555 12.011
3724 opls_1005 119 EH   C05 199 -0.16930555 12.011
3725 opls_1006 119 EH   H06 199  0.14479445  1.008
3726 opls_1007 119 EH   H07 199  0.14479445  1.008
3727 opls_1008 119 EH   C08 199  0.47689445 12.011
3728 opls_1009 119 EH   O09 199 -0.46140555 15.999
3729 opls_1010 119 EH   O0A 199 -0.37160555 15.999
3730 opls_1011 119 EH   C0B 199  0.01739445 12.011
3731 opls_1012 119 EH   H0C 199  0.10599445  1.008
3732 opls_1013 119 EH   H0D 199  0.10599445  1.008
3733 opls_1014 119 EH   C0E 199 -0.11380555 12.011
3734 opls_1015 119 EH   H0F 199  0.10879445  1.008
3735 opls_1016 119 EH   C0G 199 -0.17230556 12.011
3736 opls_1017 119 EH   H0H 199  0.09059444  1.008
3737 opls_1018 119 EH   H0I 199  0.09059444  1.008
3738 opls_1019 119 EH   C0J 199 -0.23440556 12.011
3739 opls_1020 119 EH   H0K 199  0.08389444  1.008
3740 opls_1021 119 EH   H0M 199  0.08389444  1.008
3741 opls_1022 119 EH   H0N 199  0.08389444  1.008
3742 opls_1023 119 EH   C0O 199 -0.16680556 12.011
3743 opls_1024 119 EH   H0P 199  0.09399444  1.008
3744 opls_1025 119 EH   H0Q 199  0.09399444  1.008
3745 opls_1026 119 EH   C0R 199 -0.17620556 12.011
3746 opls_1027 119 EH   H0S 199  0.08869444  1.008
3747 opls_1028 119 EH   H0T 199  0.08869444  1.008
3748 opls_1029 119 EH   C0U 199 -0.17710556 12.011
3749 opls_1030 119 EH   H0V 199  0.08599444  1.008
3750 opls_1031 119 EH   H0W 199  0.08599444  1.008
3751 opls_1032 119 EH   C0X 200 -0.23570556 12.011
3752 opls_1033 119 EH   H0Y 200  0.08129444  1.008
3753 opls_1034 119 EH   H0Z 200  0.08129444  1.008
3754 opls_1035 119 EH   H10 200  0.08129444  1.008
3755 opls_1000 120 EH   H00 201  0.10189445  1.008
3756 opls_1001 120 EH   C01 201 -0.19260555 12.011
3757 opls_1002 120 EH   H02 201  0.10189445  1.008
3758 opls_1003 120 EH   H03 201  0.10189445  1.008
3759 opls_1004 120 EH   C04 201 -0.15320555 12.011
3760 opls_1005 120 EH   C05 201 -0.16930555 12.011
3761 opls_1006 120 EH   H06 201  0.14479445  1.008
3762 opls_1007 120 EH   H07 201  0.14479445  1.008
3763 opls_1008 120 EH   C08 201  0.47689445 12.011
3764 opls_1009 120 EH   O09 201 -0.46140555 15.999
3765 opls_1010 120 EH   O0A 201 -0.37160555 15.999
3766 opls_1011 120 EH   C0B 201  0.01739445 12.011
3767 opls_1012 120 EH   H0C 201  0.10599445  1.008
3768 opls_1013 120 EH   H0D 201  0.10599445  1.008
3769 opls_1014 120 EH   C0E 201 -0.11380555 12.011
3770 opls_1015 120 EH   H0F 201  0.10879445  1.008
3771 opls_1016 120 EH   C0G 201 -0.17230556 12.011
3772 opls_1017 120 EH   H0H 201  0.09059444  1.008
3773 opls_1018 120 EH   H0I 201  0.09059444  1.008
3774 opls_1019 120 EH   C0J 201 -0.23440556 12.011
3775 opls_1020 120 EH   H0K 201  0.08389444  1.008
3776 opls_1021 120 EH   H0M 201  0.08389444  1.008
3777 opls_1022 120 EH   H0N 201  0.08389444  1.008
3778 opls_1023 120 EH   C0O 201 -0.16680556 12.011
3779 opls_1024 120 EH   H0P 201  0.09399444  1.008
3780 opls_1025 120 EH   H0Q 201  0.09399444  1.008
3781 opls_1026 120 EH   C0R 201 -0.17620556 12.011
3782 opls_1027 120 EH   H0S 201  0.08869444  1.008
3783 opls_1028 120 EH   H0T 201  0.08869444  1.008
3784 opls_1029 120 EH   C0U 201 -0.17710556 12.011
3785 opls_1030 120 EH   H0V 201  0.08599444  1.008
3786 opls_1031 120 EH   H0W 201  0.08599444  1.008
3787 opls_1032 120 EH   C0X 202 -0.23570556 12.011
3788 opls_1033 120 EH   H0Y 202  0.08129444  1.008
3789 opls_1034 120 EH   H0Z 202  0.08129444  1.008
3790 opls_1035 120 EH   H10 202  0.08129444  1.008
3791 opls_1036 121 LA   H00 203      0.1018  1.008
3792 opls_1037 121 LA   C01 203     -0.1925 12.011
3793 opls_1038 121 LA   H02 203      0.1018  1.008
3794 opls_1039 121 LA   H03 203      0.1018  1.008
3795 opls_1040 121 LA   C04 203      -0.154 12.011
3796 opls_1041 121 LA   C05 203     -0.1693 12.011
3797 opls_1042 121 LA   H06 203       0.145  1.008
3798 opls_1043 121 LA   H07 203       0.145  1.008
3799 opls_1044 121 LA   C08 203      0.4759 12.011
3800 opls_1045 121 LA   O09 203     -0.4618 15.999
3801 opls_1046 121 LA   O0A 203     -0.3719 15.999
3802 opls_1047 121 LA   C0B 203      0.0179 12.011
3803 opls_1048 121 LA   H0C 203      0.1065  1.008
3804 opls_1049 121 LA   H0D 203      0.1065  1.008
3805 opls_1050 121 LA   C0E 203     -0.1807 12.011
3806 opls_1051 121 LA   H0F 203      0.1036  1.008
3807 opls_1052 121 LA   H0G 203      0.1036  1.008
3808 opls_1053 121 LA   C0H 203     -0.1746 12.011
3809 opls_1054 121 LA   H0I 203      0.0946  1.008
3810 opls_1055 121 LA   H0J 203      0.0946  1.008
3811 opls_1056 121 LA   C0K 203     -0.1762 12.011
3812 opls_1057 121 LA   H0M 203      0.0878  1.008
3813 opls_1058 121 LA   H0N 203      0.0878  1.008
3814 opls_1059 121 LA   C0O 203     -0.1732 12.011
3815 opls_1060 121 LA   H0P 203      0.0879  1.008
3816 opls_1061 121 LA   H0Q 203      0.0879  1.008
3817 opls_1062 121 LA   C0R 203     -0.1741 12.011
3818 opls_1063 121 LA   H0S 203      0.0886  1.008
3819 opls_1064 121 LA   H0T 203      0.0886  1.008
3820 opls_1065 121 LA   C0U 203     -0.1731 12.011
3821 opls_1066 121 LA   H0V 203      0.0876  1.008
3822 opls_1067 121 LA   H0W 203      0.0876  1.008
3823 opls_1068 121 LA   C0X 204     -0.1734 12.011
3824 opls_1069 121 LA   H0Y 204       0.087  1.008
3825 opls_1070 121 LA   H0Z 204       0.087  1.008
3826 opls_1071 121 LA   C10 204      -0.176 12.011
3827 opls_1072 121 LA   H11 204      0.0872  1.008
3828 opls_1073 121 LA   H12 204      0.0872  1.008
3829 opls_1074 121 LA   C13 204     -0.1769 12.011
3830 opls_1075 121 LA   H14 204      0.0865  1.008
3831 opls_1076 121 LA   H15 204      0.0865  1.008
3832 opls_1077 121 LA   C16 204     -0.1758 12.011
3833 opls_1078 121 LA   H17 204      0.0861  1.008
3834 opls_1079 121 LA   H18 204      0.0861  1.008
3835 opls_1080 121 LA   C19 204     -0.2355 12.011
3836 opls_1081 121 LA   H1A 204       0.081  1.008
3837 opls_1082 121 LA   H1B 204       0.081  1.008
3838 opls_1083 121 LA   H1C 204       0.081  1.008
3839 opls_1000 122 EH   H00 205  0.10189445  1.008
3840 opls_1001 122 EH   C01 205 -0.19260555 12.011
3841 opls_1002 122 EH   H02 205  0.10189445  1.008
3842 opls_1003 122 EH   H03 205  0.10189445  1.008
3843 opls_1004 122 EH   C04 205 -0.15320555 12.011
3844 opls_1005 122 EH   C05 205 -0.16930555 12.011
3845 opls_1006 122 EH   H06 205  0.14479445  1.008
3846 opls_1007 122 EH   H07 205  0.14479445  1.008
3847 opls_1008 122 EH   C08 205  0.47689445 12.011
3848 opls_1009 122 EH   O09 205 -0.46140555 15.999
3849 opls_1010 122 EH   O0A 205 -0.37160555 15.999
3850 opls_1011 122 EH   C0B 205  0.01739445 12.011
3851 opls_1012 122 EH   H0C 205  0.10599445  1.008
3852 opls_1013 122 EH   H0D 205  0.10599445  1.008
3853 opls_1014 122 EH   C0E 205 -0.11380555 12.011
3854 opls_1015 122 EH   H0F 205  0.10879445  1.008
3855 opls_1016 122 EH   C0G 205 -0.17230556 12.011
3856 opls_1017 122 EH   H0H 205  0.09059444  1.008
3857 opls_1018 122 EH   H0I 205  0.09059444  1.008
3858 opls_1019 122 EH   C0J 205 -0.23440556 12.011
3859 opls_1020 122 EH   H0K 205  0.08389444  1.008
3860 opls_1021 122 EH   H0M 205  0.08389444  1.008
3861 opls_1022 122 EH   H0N 205  0.08389444  1.008
3862 opls_1023 122 EH   C0O 205 -0.16680556 12.011
3863 opls_1024 122 EH   H0P 205  0.09399444  1.008
3864 opls_1025 122 EH   H0Q 205  0.09399444  1.008
3865 opls_1026 122 EH   C0R 205 -0.17620556 12.011
3866 opls_1027 122 EH   H0S 205  0.08869444  1.008
3867 opls_1028 122 EH   H0T 205  0.08869444  1.008
3868 opls_1029 122 EH   C0U 205 -0.17710556 12.011
3869 opls_1030 122 EH   H0V 205  0.08599444  1.008
3870 opls_1031 122 EH   H0W 205  0.08599444  1.008
3871 opls_1032 122 EH   C0X 206 -0.23570556 12.011
3872 opls_1033 122 EH   H0Y 206  0.08129444  1.008
3873 opls_1034 122 EH   H0Z 206  0.08129444  1.008
3874 opls_1035 122 EH   H10 206  0.08129444  1.008
3875 opls_1036 123 LA   H00 207      0.1018  1.008
3876 opls_1037 123 LA   C01 207     -0.1925 12.011
3877 opls_1038 123 LA   H02 207      0.1018  1.008
3878 opls_1039 123 LA   H03 207      0.1018  1.008
3879 opls_1040 123 LA   C04 207      -0.154 12.011
3880 opls_1041 123 LA   C05 207     -0.1693 12.011
3881 opls_1042 123 LA   H06 207       0.145  1.008
3882 opls_1043 123 LA   H07 207       0.145  1.008
3883 opls_1044 123 LA   C08 207      0.4759 12.011
3884 opls_1045 123 LA   O09 207     -0.4618 15.999
3885 opls_1046 123 LA   O0A 207     -0.3719 15.999
3886 opls_1047 123 LA   C0B 207      0.0179 12.011
3887 opls_1048 123 LA   H0C 207      0.1065  1.008
3888 opls_1049 123 LA   H0D 207      0.1065  1.008
3889 opls_1050 123 LA   C0E 207     -0.1807 12.011
3890 opls_1051 123 LA   H0F 207      0.1036  1.008
3891 opls_1052 123 LA   H0G 207      0.1036  1.008
3892 opls_1053 123 LA   C0H 207     -0.1746 12.011
3893 opls_1054 123 LA   H0I 207      0.0946  1.008
3894 opls_1055 123 LA   H0J 207      0.0946  1.008
3895 opls_1056 123 LA   C0K 207     -0.1762 12.011
3896 opls_1057 123 LA   H0M 207      0.0878  1.008
3897 opls_1058 123 LA   H0N 207      0.0878  1.008
3898 opls_1059 123 LA   C0O 207     -0.1732 12.011
3899 opls_1060 123 LA   H0P 207      0.0879  1.008
3900 opls_1061 123 LA   H0Q 207      0.0879  1.008
3901 opls_1062 123 LA   C0R 207     -0.1741 12.011
3902 opls_1063 123 LA   H0S 207      0.0886  1.008
3903 opls_1064 123 LA   H0T 207      0.0886  1.008
3904 opls_1065 123 LA   C0U 207     -0.1731 12.011
3905 opls_1066 123 LA   H0V 207      0.0876  1.008
3906 opls_1067 123 LA   H0W 207      0.0876  1.008
3907 opls_1068 123 LA   C0X 208     -0.1734 12.011
3908 opls_1069 123 LA   H0Y 208       0.087  1.008
3909 opls_1070 123 LA   H0Z 208       0.087  1.008
3910 opls_1071 123 LA   C10 208      -0.176 12.011
3911 opls_1072 123 LA   H11 208      0.0872  1.008
3912 opls_1073 123 LA   H12 208      0.0872  1.008
3913 opls_1074 123 LA   C13 208     -0.1769 12.011
3914 opls_1075 123 LA   H14 208      0.0865  1.008
3915 opls_1076 123 LA   H15 208      0.0865  1.008
3916 opls_1077 123 LA   C16 208     -0.1758 12.011
3917 opls_1078 123 LA   H17 208      0.0861  1.008
3918 opls_1079 123 LA   H18 208      0.0861  1.008
3919 opls_1080 123 LA   C19 208     -0.2355 12.011
3920 opls_1081 123 LA   H1A 208       0.081  1.008
3921 opls_1082 123 LA   H1B 208       0.081  1.008
3922 opls_1083 123 LA   H1C 208       0.081  1.008
3923 opls_1036 124 LA   H00 209      0.1018  1.008
3924 opls_1037 124 LA   C01 209     -0.1925 12.011
3925 opls_1038 124 LA   H02 209      0.1018  1.008
3926 opls_1039 124 LA   H03 209      0.1018  1.008
3927 opls_1040 124 LA   C04 209      -0.154 12.011
3928 opls_1041 124 LA   C05 209     -0.1693 12.011
3929 opls_1042 124 LA   H06 209       0.145  1.008
3930 opls_1043 124 LA   H07 209       0.145  1.008
3931 opls_1044 124 LA   C08 209      0.4759 12.011
3932 opls_1045 124 LA   O09 209     -0.4618 15.999
3933 opls_1046 124 LA   O0A 209     -0.3719 15.999
3934 opls_1047 124 LA   C0B 209      0.0179 12.011
3935 opls_1048 124 LA   H0C 209      0.1065  1.008
3936 opls_1049 124 LA   H0D 209      0.1065  1.008
3937 opls_1050 124 LA   C0E 209     -0.1807 12.011
3938 opls_1051 124 LA   H0F 209      0.1036  1.008
3939 opls_1052 124 LA   H0G 209      0.1036  1.008
3940 opls_1053 124 LA   C0H 209     -0.1746 12.011
3941 opls_1054 124 LA   H0I 209      0.0946  1.008
3942 opls_1055 124 LA   H0J 209      0.0946  1.008
3943 opls_1056 124 LA   C0K 209     -0.1762 12.011
3944 opls_1057 124 LA   H0M 209      0.0878  1.008
3945 opls_1058 124 LA   H0N 209      0.0878  1.008
3946 opls_1059 124 LA   C0O 209     -0.1732 12.011
3947 opls_1060 124 LA   H0P 209      0.0879  1.008
3948 opls_1061 124 LA   H0Q 209      0.0879  1.008
3949 opls_1062 124 LA   C0R 209     -0.1741 12.011
3950 opls_1063 124 LA   H0S 209      0.0886  1.008
3951 opls_1064 124 LA   H0T 209      0.0886  1.008
3952 opls_1065 124 LA   C0U 209     -0.1731 12.011
3953 opls_1066 124 LA   H0V 209      0.0876  1.008
3954 opls_1067 124 LA   H0W 209      0.0876  1.008
3955 opls_1068 124 LA   C0X 210     -0.1734 12.011
3956 opls_1069 124 LA   H0Y 210       0.087  1.008
3957 opls_1070 124 LA   H0Z 210       0.087  1.008
3958 opls_1071 124 LA   C10 210      -0.176 12.011
3959 opls_1072 124 LA   H11 210      0.0872  1.008
3960 opls_1073 124 LA   H12 210      0.0872  1.008
3961 opls_1074 124 LA   C13 210     -0.1769 12.011
3962 opls_1075 124 LA   H14 210      0.0865  1.008
3963 opls_1076 124 LA   H15 210      0.0865  1.008
3964 opls_1077 124 LA   C16 210     -0.1758 12.011
3965 opls_1078 124 LA   H17 210      0.0861  1.008
3966 opls_1079 124 LA   H18 210      0.0861  1.008
3967 opls_1080 124 LA   C19 210     -0.2355 12.011
3968 opls_1081 124 LA   H1A 210       0.081  1.008
3969 opls_1082 124 LA   H1B 210       0.081  1.008
3970 opls_1083 124 LA   H1C 210       0.081  1.008
3971 opls_1000 125 EH   H00 211  0.10189445  1.008
3972 opls_1001 125 EH   C01 211 -0.19260555 12.011
3973 opls_1002 125 EH   H02 211  0.10189445  1.008
3974 opls_1003 125 EH   H03 211  0.10189445  1.008
3975 opls_1004 125 EH   C04 211 -0.15320555 12.011
3976 opls_1005 125 EH   C05 211 -0.16930555 12.011
3977 opls_1006 125 EH   H06 211  0.14479445  1.008
3978 opls_1007 125 EH   H07 211  0.14479445  1.008
3979 opls_1008 125 EH   C08 211  0.47689445 12.011
3980 opls_1009 125 EH   O09 211 -0.46140555 15.999
3981 opls_1010 125 EH   O0A 211 -0.37160555 15.999
3982 opls_1011 125 EH   C0B 211  0.01739445 12.011
3983 opls_1012 125 EH   H0C 211  0.10599445  1.008
3984 opls_1013 125 EH   H0D 211  0.10599445  1.008
3985 opls_1014 125 EH   C0E 211 -0.11380555 12.011
3986 opls_1015 125 EH   H0F 211  0.10879445  1.008
3987 opls_1016 125 EH   C0G 211 -0.17230556 12.011
3988 opls_1017 125 EH   H0H 211  0.09059444  1.008
3989 opls_1018 125 EH   H0I 211  0.09059444  1.008
3990 opls_1019 125 EH   C0J 211 -0.23440556 12.011
3991 opls_1020 125 EH   H0K 211  0.08389444  1.008
3992 opls_1021 125 EH   H0M 211  0.08389444  1.008
3993 opls_1022 125 EH   H0N 211  0.08389444  1.008
3994 opls_1023 125 EH   C0O 211 -0.16680556 12.011
3995 opls_1024 125 EH   H0P 211  0.09399444  1.008
3996 opls_1025 125 EH   H0Q 211  0.09399444  1.008
3997 opls_1026 125 EH   C0R 211 -0.17620556 12.011
3998 opls_1027 125 EH   H0S 211  0.08869444  1.008
3999 opls_1028 125 EH   H0T 211  0.08869444  1.008
4000 opls_1029 125 EH   C0U 211 -0.17710556 12.011
4001 opls_1030 125 EH   H0V 211  0.08599444  1.008
4002 opls_1031 125 EH   H0W 211  0.08599444  1.008
4003 opls_1032 125 EH   C0X 212 -0.23570556 12.011
4004 opls_1033 125 EH   H0Y 212  0.08129444  1.008
4005 opls_1034 125 EH   H0Z 212  0.08129444  1.008
4006 opls_1035 125 EH   H10 212  0.08129444  1.008
4007 opls_1135 126 ST   H00 213  0.10359696  1.008
4008 opls_1136 126 ST   C01 213 -0.20110304 12.011
4009 opls_1137 126 ST   H02 213  0.10359697  1.008
4010 opls_1138 126 ST   H03 213  0.10359697  1.008
4011 opls_1139 126 ST   C04 213 -0.14310303 12.011
4012 opls_1140 126 ST   C05 213 -0.16450303 12.011
4013 opls_1141 126 ST   H06 213  0.15039697  1.008
4014 opls_1142 126 ST   H07 213  0.15039697  1.008
4015 opls_1143 126 ST   C08 213  0.47079697 12.011
4016 opls_1144 126 ST   O09 213 -0.46970303 15.999
4017 opls_1145 126 ST   O0A 213 -0.37860303 15.999
4018 opls_1146 126 ST   C0B 213  0.01369697 12.011
4019 opls_1147 126 ST   H0C 213  0.12039697  1.008
4020 opls_1148 126 ST   H0D 213  0.12039697  1.008
4021 opls_1149 126 ST   C0E 213 -0.21050303 12.011
4022 opls_1150 126 ST   H0F 213  0.10689697  1.008
4023 opls_1151 126 ST   H0G 213  0.10689697  1.008
4024 opls_1152 126 ST   C0H 213 -0.17690303 12.011
4025 opls_1153 126 ST   H0I 213  0.09539697  1.008
4026 opls_1154 126 ST   H0J 213  0.09539697  1.008
4027 opls_1155 126 ST   C0K 213 -0.18200303 12.011
4028 opls_1156 126 ST   H0M 213  0.09069697  1.008
4029 opls_1157 126 ST   H0N 213  0.09069697  1.008
4030 opls_1158 126 ST   C0O 213 -0.17810303 12.011
4031 opls_1159 126 ST   H0P 213  0.08999697  1.008
4032 opls_1160 126 ST   H0Q 213  0.08999697  1.008
4033 opls_1161 126 ST   C0R 213 -0.17550303 12.011
4034 opls_1162 126 ST   H0S 213  0.08789697  1.008
4035 opls_1163 126 ST   H0T 213  0.08789697  1.008
4036 opls_1164 126 ST   C0U 213 -0.17810303 12.011
4037 opls_1165 126 ST   H0V 213  0.08819697  1.008
4038 opls_1166 126 ST   H0W 213  0.08819697  1.008
4039 opls_1167 126 ST   C0X 214 -0.18000303 12.011
4040 opls_1168 126 ST   H0Y 214  0.09189697  1.008
4041 opls_1169 126 ST   H0Z 214  0.09189697  1.008
4042 opls_1170 126 ST   C10 214 -0.17800303 12.011
4043 opls_1171 126 ST   H11 214  0.08809697  1.008
4044 opls_1172 126 ST   H12 214  0.08809697  1.008
4045 opls_1173 126 ST   C13 214 -0.17850303 12.011
4046 opls_1174 126 ST   H14 214  0.08859697  1.008
4047 opls_1175 126 ST   H15 214  0.08859697  1.008
4048 opls_1176 126 ST   C16 214 -0.17980303 12.011
4049 opls_1177 126 ST   H17 214  0.09129697  1.008
4050 opls_1178 126 ST   H18 214  0.09129697  1.008
4051 opls_1179 126 ST   C19 214 -0.17840303 12.011
4052 opls_1180 126 ST   H1A 214  0.08869697  1.008
4053 opls_1181 126 ST   H1B 214  0.08869697  1.008
4054 opls_1182 126 ST   C1C 214 -0.17770303 12.011
4055 opls_1183 126 ST   H1D 214  0.08879697  1.008
4056 opls_1184 126 ST   H1E 214  0.08879697  1.008
4057 opls_1185 126 ST   C1F 214 -0.17950303 12.011
4058 opls_1186 126 ST   H1G 214  0.09049697  1.008
4059 opls_1187 126 ST   H1H 214  0.09049697  1.008
4060 opls_1188 126 ST   C1I 214 -0.18020303 12.011
4061 opls_1189 126 ST   H1J 214  0.08919697  1.008
4062 opls_1190 126 ST   H1K 214  0.08919697  1.008
4063 opls_1191 126 ST   C1M 214 -0.17960303 12.011
4064 opls_1192 126 ST   H1N 214  0.08959697  1.008
4065 opls_1193 126 ST   H1O 214  0.08959697  1.008
4066 opls_1194 126 ST   C1P 214 -0.18080303 12.011
4067 opls_1195 126 ST   H1Q 214  0.08849697  1.008
4068 opls_1196 126 ST   H1R 214  0.08849697  1.008
4069 opls_1197 126 ST   C1S 214 -0.23980303 12.011
4070 opls_1198 126 ST   H1T 214  0.08169697  1.008
4071 opls_1199 126 ST   H1U 214  0.08169697  1.008
4072 opls_1200 126 ST   H1V 215  0.08169697  1.008
4073 opls_1036 127 LA   H00 216      0.1018  1.008
4074 opls_1037 127 LA   C01 216     -0.1925 12.011
4075 opls_1038 127 LA   H02 216      0.1018  1.008
4076 opls_1039 127 LA   H03 216      0.1018  1.008
4077 opls_1040 127 LA   C04 216      -0.154 12.011
4078 opls_1041 127 LA   C05 216     -0.1693 12.011
4079 opls_1042 127 LA   H06 216       0.145  1.008
4080 opls_1043 127 LA   H07 216       0.145  1.008
4081 opls_1044 127 LA   C08 216      0.4759 12.011
4082 opls_1045 127 LA   O09 216     -0.4618 15.999
4083 opls_1046 127 LA   O0A 216     -0.3719 15.999
4084 opls_1047 127 LA   C0B 216      0.0179 12.011
4085 opls_1048 127 LA   H0C 216      0.1065  1.008
4086 opls_1049 127 LA   H0D 216      0.1065  1.008
4087 opls_1050 127 LA   C0E 216     -0.1807 12.011
4088 opls_1051 127 LA   H0F 216      0.1036  1.008
4089 opls_1052 127 LA   H0G 216      0.1036  1.008
4090 opls_1053 127 LA   C0H 216     -0.1746 12.011
4091 opls_1054 127 LA   H0I 216      0.0946  1.008
4092 opls_1055 127 LA   H0J 216      0.0946  1.008
4093 opls_1056 127 LA   C0K 216     -0.1762 12.011
4094 opls_1057 127 LA   H0M 216      0.0878  1.008
4095 opls_1058 127 LA   H0N 216      0.0878  1.008
4096 opls_1059 127 LA   C0O 216     -0.1732 12.011
4097 opls_1060 127 LA   H0P 216      0.0879  1.008
4098 opls_1061 127 LA   H0Q 216      0.0879  1.008
4099 opls_1062 127 LA   C0R 216     -0.1741 12.011
4100 opls_1063 127 LA   H0S 216      0.0886  1.008
4101 opls_1064 127 LA   H0T 216      0.0886  1.008
4102 opls_1065 127 LA   C0U 216     -0.1731 12.011
4103 opls_1066 127 LA   H0V 216      0.0876  1.008
4104 opls_1067 127 LA   H0W 216      0.0876  1.008
4105 opls_1068 127 LA   C0X 217     -0.1734 12.011
4106 opls_1069 127 LA   H0Y 217       0.087  1.008
4107 opls_1070 127 LA   H0Z 217       0.087  1.008
4108 opls_1071 127 LA   C10 217      -0.176 12.011
4109 opls_1072 127 LA   H11 217      0.0872  1.008
4110 opls_1073 127 LA   H12 217      0.0872  1.008
4111 opls_1074 127 LA   C13 217     -0.1769 12.011
4112 opls_1075 127 LA   H14 217      0.0865  1.008
4113 opls_1076 127 LA   H15 217      0.0865  1.008
4114 opls_1077 127 LA   C16 217     -0.1758 12.011
4115 opls_1078 127 LA   H17 217      0.0861  1.008
4116 opls_1079 127 LA   H18 217      0.0861  1.008
4117 opls_1080 127 LA   C19 217     -0.2355 12.011
4118 opls_1081 127 LA   H1A 217       0.081  1.008
4119 opls_1082 127 LA   H1B 217       0.081  1.008
4120 opls_1083 127 LA   H1C 217       0.081  1.008
4121 opls_1135 128 ST   H00 218  0.10359696  1.008
4122 opls_1136 128 ST   C01 218 -0.20110304 12.011
4123 opls_1137 128 ST   H02 218  0.10359697  1.008
4124 opls_1138 128 ST   H03 218  0.10359697  1.008
4125 opls_1139 128 ST   C04 218 -0.14310303 12.011
4126 opls_1140 128 ST   C05 218 -0.16450303 12.011
4127 opls_1141 128 ST   H06 218  0.15039697  1.008
4128 opls_1142 128 ST   H07 218  0.15039697  1.008
4129 opls_1143 128 ST   C08 218  0.47079697 12.011
4130 opls_1144 128 ST   O09 218 -0.46970303 15.999
4131 opls_1145 128 ST   O0A 218 -0.37860303 15.999
4132 opls_1146 128 ST   C0B 218  0.01369697 12.011
4133 opls_1147 128 ST   H0C 218  0.12039697  1.008
4134 opls_1148 128 ST   H0D 218  0.12039697  1.008
4135 opls_1149 128 ST   C0E 218 -0.21050303 12.011
4136 opls_1150 128 ST   H0F 218  0.10689697  1.008
4137 opls_1151 128 ST   H0G 218  0.10689697  1.008
4138 opls_1152 128 ST   C0H 218 -0.17690303 12.011
4139 opls_1153 128 ST   H0I 218  0.09539697  1.008
4140 opls_1154 128 ST   H0J 218  0.09539697  1.008
4141 opls_1155 128 ST   C0K 218 -0.18200303 12.011
4142 opls_1156 128 ST   H0M 218  0.09069697  1.008
4143 opls_1157 128 ST   H0N 218  0.09069697  1.008
4144 opls_1158 128 ST   C0O 218 -0.17810303 12.011
4145 opls_1159 128 ST   H0P 218  0.08999697  1.008
4146 opls_1160 128 ST   H0Q 218  0.08999697  1.008
4147 opls_1161 128 ST   C0R 218 -0.17550303 12.011
4148 opls_1162 128 ST   H0S 218  0.08789697  1.008
4149 opls_1163 128 ST   H0T 218  0.08789697  1.008
4150 opls_1164 128 ST   C0U 218 -0.17810303 12.011
4151 opls_1165 128 ST   H0V 218  0.08819697  1.008
4152 opls_1166 128 ST   H0W 218  0.08819697  1.008
4153 opls_1167 128 ST   C0X 219 -0.18000303 12.011
4154 opls_1168 128 ST   H0Y 219  0.09189697  1.008
4155 opls_1169 128 ST   H0Z 219  0.09189697  1.008
4156 opls_1170 128 ST   C10 219 -0.17800303 12.011
4157 opls_1171 128 ST   H11 219  0.08809697  1.008
4158 opls_1172 128 ST   H12 219  0.08809697  1.008
4159 opls_1173 128 ST   C13 219 -0.17850303 12.011
4160 opls_1174 128 ST   H14 219  0.08859697  1.008
4161 opls_1175 128 ST   H15 219  0.08859697  1.008
4162 opls_1176 128 ST   C16 219 -0.17980303 12.011
4163 opls_1177 128 ST   H17 219  0.09129697  1.008
4164 opls_1178 128 ST   H18 219  0.09129697  1.008
4165 opls_1179 128 ST   C19 219 -0.17840303 12.011
4166 opls_1180 128 ST   H1A 219  0.08869697  1.008
4167 opls_1181 128 ST   H1B 219  0.08869697  1.008
4168 opls_1182 128 ST   C1C 219 -0.17770303 12.011
4169 opls_1183 128 ST   H1D 219  0.08879697  1.008
4170 opls_1184 128 ST   H1E 219  0.08879697  1.008
4171 opls_1185 128 ST   C1F 219 -0.17950303 12.011
4172 opls_1186 128 ST   H1G 219  0.09049697  1.008
4173 opls_1187 128 ST   H1H 219  0.09049697  1.008
4174 opls_1188 128 ST   C1I 219 -0.18020303 12.011
4175 opls_1189 128 ST   H1J 219  0.08919697  1.008
4176 opls_1190 128 ST   H1K 219  0.08919697  1.008
4177 opls_1191 128 ST   C1M 219 -0.17960303 12.011
4178 opls_1192 128 ST   H1N 219  0.08959697  1.008
4179 opls_1193 128 ST   H1O 219  0.08959697  1.008
4180 opls_1194 128 ST   C1P 219 -0.18080303 12.011
4181 opls_1195 128 ST   H1Q 219  0.08849697  1.008
4182 opls_1196 128 ST   H1R 219  0.08849697  1.008
4183 opls_1197 128 ST   C1S 219 -0.23980303 12.011
4184 opls_1198 128 ST   H1T 219  0.08169697  1.008
4185 opls_1199 128 ST   H1U 219  0.08169697  1.008
4186 opls_1200 128 ST   H1V 220  0.08169697  1.008
4187 opls_135  129 CH3n C1  221   -0.279225 12.011
4188 opls_140  129 CH3n H2  222    0.093075  1.008
4189 opls_140  129 CH3n H3  223    0.093075  1.008
4190 opls_140  129 CH3n H4  224    0.093075  1.008

[ bonds ]
   1    2 1 0.1090 284512.000
   1    3 1 0.1090 284512.000
   1    4 1 0.1090 284512.000
   1   12 1 0.152900 224262.400000
   5    6 1 0.1090 284512.000
   6    7 1 0.1090 284512.000
   6    8 1 0.1090 284512.000
   6    9 1 0.1410 267776.000
   9   10 1 0.1327 179075.200
  10   11 1 0.1229 476976.000
  10   12 1 0.1444 343088.000
  12   13 1 0.1340 459403.200
  12   16 1 0.1510 265265.600
  13   14 1 0.1080 284512.000
  13   15 1 0.1080 284512.000
  13   27 1 0.152900 224262.400000
  16   17 1 0.1090 284512.000
  16   18 1 0.1090 284512.000
  16   19 1 0.1090 284512.000
  20   21 1 0.1090 284512.000
  21   22 1 0.1090 284512.000
  21   23 1 0.1090 284512.000
  21   24 1 0.1410 267776.000
  24   25 1 0.1327 179075.200
  25   26 1 0.1229 476976.000
  25   27 1 0.1444 343088.000
  27   28 1 0.1340 459403.200
  27   31 1 0.1510 265265.600
  28   29 1 0.1080 284512.000
  28   30 1 0.1080 284512.000
  28   42 1 0.152900 224262.400000
  31   32 1 0.1090 284512.000
  31   33 1 0.1090 284512.000
  31   34 1 0.1090 284512.000
  35   36 1 0.1090 284512.000
  36   37 1 0.1090 284512.000
  36   38 1 0.1090 284512.000
  36   39 1 0.1410 267776.000
  39   40 1 0.1327 179075.200
  40   41 1 0.1229 476976.000
  40   42 1 0.1444 343088.000
  42   43 1 0.1340 459403.200
  42   46 1 0.1510 265265.600
  43   44 1 0.1080 284512.000
  43   45 1 0.1080 284512.000
  43   57 1 0.152900 224262.400000
  46   47 1 0.1090 284512.000
  46   48 1 0.1090 284512.000
  46   49 1 0.1090 284512.000
  50   51 1 0.1090 284512.000
  51   52 1 0.1090 284512.000
  51   53 1 0.1090 284512.000
  51   54 1 0.1410 267776.000
  54   55 1 0.1327 179075.200
  55   56 1 0.1229 476976.000
  55   57 1 0.1444 343088.000
  57   58 1 0.1340 459403.200
  57   61 1 0.1510 265265.600
  58   59 1 0.1080 284512.000
  58   60 1 0.1080 284512.000
  58   72 1 0.152900 224262.400000
  61   62 1 0.1090 284512.000
  61   63 1 0.1090 284512.000
  61   64 1 0.1090 284512.000
  65   66 1 0.1090 284512.000
  66   67 1 0.1090 284512.000
  66   68 1 0.1090 284512.000
  66   69 1 0.1410 267776.000
  69   70 1 0.1327 179075.200
  70   71 1 0.1229 476976.000
  70   72 1 0.1444 343088.000
  72   73 1 0.1340 459403.200
  72   76 1 0.1510 265265.600
  73   74 1 0.1080 284512.000
  73   75 1 0.1080 284512.000
  73   87 1 0.152900 224262.400000
  76   77 1 0.1090 284512.000
  76   78 1 0.1090 284512.000
  76   79 1 0.1090 284512.000
  80   81 1 0.1090 284512.000
  81   82 1 0.1090 284512.000
  81   83 1 0.1090 284512.000
  81   84 1 0.1410 267776.000
  84   85 1 0.1327 179075.200
  85   86 1 0.1229 476976.000
  85   87 1 0.1444 343088.000
  87   88 1 0.1340 459403.200
  87   91 1 0.1510 265265.600
  88   89 1 0.1080 284512.000
  88   90 1 0.1080 284512.000
  88  102 1 0.152900 224262.400000
  91   92 1 0.1090 284512.000
  91   93 1 0.1090 284512.000
  91   94 1 0.1090 284512.000
  95   96 1 0.1090 284512.000
  96   97 1 0.1090 284512.000
  96   98 1 0.1090 284512.000
  96   99 1 0.1410 267776.000
  99  100 1 0.1327 179075.200
 100  101 1 0.1229 476976.000
 100  102 1 0.1444 343088.000
 102  103 1 0.1340 459403.200
 102  106 1 0.1510 265265.600
 103  104 1 0.1080 284512.000
 103  105 1 0.1080 284512.000
 103  117 1 0.152900 224262.400000
 106  107 1 0.1090 284512.000
 106  108 1 0.1090 284512.000
 106  109 1 0.1090 284512.000
 110  111 1 0.1090 284512.000
 111  112 1 0.1090 284512.000
 111  113 1 0.1090 284512.000
 111  114 1 0.1410 267776.000
 114  115 1 0.1327 179075.200
 115  116 1 0.1229 476976.000
 115  117 1 0.1444 343088.000
 117  118 1 0.1340 459403.200
 117  121 1 0.1510 265265.600
 118  119 1 0.1080 284512.000
 118  120 1 0.1080 284512.000
 118  132 1 0.152900 224262.400000
 121  122 1 0.1090 284512.000
 121  123 1 0.1090 284512.000
 121  124 1 0.1090 284512.000
 125  126 1 0.1090 284512.000
 126  127 1 0.1090 284512.000
 126  128 1 0.1090 284512.000
 126  129 1 0.1410 267776.000
 129  130 1 0.1327 179075.200
 130  131 1 0.1229 476976.000
 130  132 1 0.1444 343088.000
 132  133 1 0.1340 459403.200
 132  136 1 0.1510 265265.600
 133  134 1 0.1080 284512.000
 133  135 1 0.1080 284512.000
 133  147 1 0.152900 224262.400000
 136  137 1 0.1090 284512.000
 136  138 1 0.1090 284512.000
 136  139 1 0.1090 284512.000
 140  141 1 0.1090 284512.000
 141  142 1 0.1090 284512.000
 141  143 1 0.1090 284512.000
 141  144 1 0.1410 267776.000
 144  145 1 0.1327 179075.200
 145  146 1 0.1229 476976.000
 145  147 1 0.1444 343088.000
 147  148 1 0.1340 459403.200
 147  151 1 0.1510 265265.600
 148  149 1 0.1080 284512.000
 148  150 1 0.1080 284512.000
 148  162 1 0.152900 224262.400000
 151  152 1 0.1090 284512.000
 151  153 1 0.1090 284512.000
 151  154 1 0.1090 284512.000
 155  156 1 0.1090 284512.000
 156  157 1 0.1090 284512.000
 156  158 1 0.1090 284512.000
 156  159 1 0.1410 267776.000
 159  160 1 0.1327 179075.200
 160  161 1 0.1229 476976.000
 160  162 1 0.1444 343088.000
 162  163 1 0.1340 459403.200
 162  166 1 0.1510 265265.600
 163  164 1 0.1080 284512.000
 163  165 1 0.1080 284512.000
 163  177 1 0.152900 224262.400000
 166  167 1 0.1090 284512.000
 166  168 1 0.1090 284512.000
 166  169 1 0.1090 284512.000
 170  171 1 0.1090 284512.000
 171  172 1 0.1090 284512.000
 171  173 1 0.1090 284512.000
 171  174 1 0.1410 267776.000
 174  175 1 0.1327 179075.200
 175  176 1 0.1229 476976.000
 175  177 1 0.1444 343088.000
 177  178 1 0.1340 459403.200
 177  181 1 0.1510 265265.600
 178  179 1 0.1080 284512.000
 178  180 1 0.1080 284512.000
 178  192 1 0.152900 224262.400000
 181  182 1 0.1090 284512.000
 181  183 1 0.1090 284512.000
 181  184 1 0.1090 284512.000
 185  186 1 0.1090 284512.000
 186  187 1 0.1090 284512.000
 186  188 1 0.1090 284512.000
 186  189 1 0.1410 267776.000
 189  190 1 0.1327 179075.200
 190  191 1 0.1229 476976.000
 190  192 1 0.1444 343088.000
 192  193 1 0.1340 459403.200
 192  196 1 0.1510 265265.600
 193  194 1 0.1080 284512.000
 193  195 1 0.1080 284512.000
 193  207 1 0.152900 224262.400000
 196  197 1 0.1090 284512.000
 196  198 1 0.1090 284512.000
 196  199 1 0.1090 284512.000
 200  201 1 0.1090 284512.000
 201  202 1 0.1090 284512.000
 201  203 1 0.1090 284512.000
 201  204 1 0.1410 267776.000
 204  205 1 0.1327 179075.200
 205  206 1 0.1229 476976.000
 205  207 1 0.1444 343088.000
 207  208 1 0.1340 459403.200
 207  211 1 0.1510 265265.600
 208  209 1 0.1080 284512.000
 208  210 1 0.1080 284512.000
 208  222 1 0.152900 224262.400000
 211  212 1 0.1090 284512.000
 211  213 1 0.1090 284512.000
 211  214 1 0.1090 284512.000
 215  216 1 0.1090 284512.000
 216  217 1 0.1090 284512.000
 216  218 1 0.1090 284512.000
 216  219 1 0.1410 267776.000
 219  220 1 0.1327 179075.200
 220  221 1 0.1229 476976.000
 220  222 1 0.1444 343088.000
 222  223 1 0.1340 459403.200
 222  226 1 0.1510 265265.600
 223  224 1 0.1080 284512.000
 223  225 1 0.1080 284512.000
 223  237 1 0.152900 224262.400000
 226  227 1 0.1090 284512.000
 226  228 1 0.1090 284512.000
 226  229 1 0.1090 284512.000
 230  231 1 0.1090 284512.000
 231  232 1 0.1090 284512.000
 231  233 1 0.1090 284512.000
 231  234 1 0.1410 267776.000
 234  235 1 0.1327 179075.200
 235  236 1 0.1229 476976.000
 235  237 1 0.1444 343088.000
 237  238 1 0.1340 459403.200
 237  241 1 0.1510 265265.600
 238  239 1 0.1080 284512.000
 238  240 1 0.1080 284512.000
 238  252 1 0.152900 224262.400000
 241  242 1 0.1090 284512.000
 241  243 1 0.1090 284512.000
 241  244 1 0.1090 284512.000
 245  246 1 0.1090 284512.000
 246  247 1 0.1090 284512.000
 246  248 1 0.1090 284512.000
 246  249 1 0.1410 267776.000
 249  250 1 0.1327 179075.200
 250  251 1 0.1229 476976.000
 250  252 1 0.1444 343088.000
 252  253 1 0.1340 459403.200
 252  256 1 0.1510 265265.600
 253  254 1 0.1080 284512.000
 253  255 1 0.1080 284512.000
 253  267 1 0.152900 224262.400000
 256  257 1 0.1090 284512.000
 256  258 1 0.1090 284512.000
 256  259 1 0.1090 284512.000
 260  261 1 0.1090 284512.000
 261  262 1 0.1090 284512.000
 261  263 1 0.1090 284512.000
 261  264 1 0.1410 267776.000
 264  265 1 0.1327 179075.200
 265  266 1 0.1229 476976.000
 265  267 1 0.1444 343088.000
 267  268 1 0.1340 459403.200
 267  271 1 0.1510 265265.600
 268  269 1 0.1080 284512.000
 268  270 1 0.1080 284512.000
 268  282 1 0.152900 224262.400000
 271  272 1 0.1090 284512.000
 271  273 1 0.1090 284512.000
 271  274 1 0.1090 284512.000
 275  276 1 0.1090 284512.000
 276  277 1 0.1090 284512.000
 276  278 1 0.1090 284512.000
 276  279 1 0.1410 267776.000
 279  280 1 0.1327 179075.200
 280  281 1 0.1229 476976.000
 280  282 1 0.1444 343088.000
 282  283 1 0.1340 459403.200
 282  286 1 0.1510 265265.600
 283  284 1 0.1080 284512.000
 283  285 1 0.1080 284512.000
 283  297 1 0.152900 224262.400000
 286  287 1 0.1090 284512.000
 286  288 1 0.1090 284512.000
 286  289 1 0.1090 284512.000
 290  291 1 0.1090 284512.000
 291  292 1 0.1090 284512.000
 291  293 1 0.1090 284512.000
 291  294 1 0.1410 267776.000
 294  295 1 0.1327 179075.200
 295  296 1 0.1229 476976.000
 295  297 1 0.1444 343088.000
 297  298 1 0.1340 459403.200
 297  301 1 0.1510 265265.600
 298  299 1 0.1080 284512.000
 298  300 1 0.1080 284512.000
 298  312 1 0.152900 224262.400000
 301  302 1 0.1090 284512.000
 301  303 1 0.1090 284512.000
 301  304 1 0.1090 284512.000
 305  306 1 0.1090 284512.000
 306  307 1 0.1090 284512.000
 306  308 1 0.1090 284512.000
 306  309 1 0.1410 267776.000
 309  310 1 0.1327 179075.200
 310  311 1 0.1229 476976.000
 310  312 1 0.1444 343088.000
 312  313 1 0.1340 459403.200
 312  316 1 0.1510 265265.600
 313  314 1 0.1080 284512.000
 313  315 1 0.1080 284512.000
 313  327 1 0.152900 224262.400000
 316  317 1 0.1090 284512.000
 316  318 1 0.1090 284512.000
 316  319 1 0.1090 284512.000
 320  321 1 0.1090 284512.000
 321  322 1 0.1090 284512.000
 321  323 1 0.1090 284512.000
 321  324 1 0.1410 267776.000
 324  325 1 0.1327 179075.200
 325  326 1 0.1229 476976.000
 325  327 1 0.1444 343088.000
 327  328 1 0.1340 459403.200
 327  331 1 0.1510 265265.600
 328  329 1 0.1080 284512.000
 328  330 1 0.1080 284512.000
 328  342 1 0.152900 224262.400000
 331  332 1 0.1090 284512.000
 331  333 1 0.1090 284512.000
 331  334 1 0.1090 284512.000
 335  336 1 0.1090 284512.000
 336  337 1 0.1090 284512.000
 336  338 1 0.1090 284512.000
 336  339 1 0.1410 267776.000
 339  340 1 0.1327 179075.200
 340  341 1 0.1229 476976.000
 340  342 1 0.1444 343088.000
 342  343 1 0.1340 459403.200
 342  346 1 0.1510 265265.600
 343  344 1 0.1080 284512.000
 343  345 1 0.1080 284512.000
 343  357 1 0.152900 224262.400000
 346  347 1 0.1090 284512.000
 346  348 1 0.1090 284512.000
 346  349 1 0.1090 284512.000
 350  351 1 0.1090 284512.000
 351  352 1 0.1090 284512.000
 351  353 1 0.1090 284512.000
 351  354 1 0.1410 267776.000
 354  355 1 0.1327 179075.200
 355  356 1 0.1229 476976.000
 355  357 1 0.1444 343088.000
 357  358 1 0.1340 459403.200
 357  361 1 0.1510 265265.600
 358  359 1 0.1080 284512.000
 358  360 1 0.1080 284512.000
 358  372 1 0.152900 224262.400000
 361  362 1 0.1090 284512.000
 361  363 1 0.1090 284512.000
 361  364 1 0.1090 284512.000
 365  366 1 0.1090 284512.000
 366  367 1 0.1090 284512.000
 366  368 1 0.1090 284512.000
 366  369 1 0.1410 267776.000
 369  370 1 0.1327 179075.200
 370  371 1 0.1229 476976.000
 370  372 1 0.1444 343088.000
 372  373 1 0.1340 459403.200
 372  376 1 0.1510 265265.600
 373  374 1 0.1080 284512.000
 373  375 1 0.1080 284512.000
 373  387 1 0.152900 224262.400000
 376  377 1 0.1090 284512.000
 376  378 1 0.1090 284512.000
 376  379 1 0.1090 284512.000
 380  381 1 0.1090 284512.000
 381  382 1 0.1090 284512.000
 381  383 1 0.1090 284512.000
 381  384 1 0.1410 267776.000
 384  385 1 0.1327 179075.200
 385  386 1 0.1229 476976.000
 385  387 1 0.1444 343088.000
 387  388 1 0.1340 459403.200
 387  391 1 0.1510 265265.600
 388  389 1 0.1080 284512.000
 388  390 1 0.1080 284512.000
 388  402 1 0.152900 224262.400000
 391  392 1 0.1090 284512.000
 391  393 1 0.1090 284512.000
 391  394 1 0.1090 284512.000
 395  396 1 0.1090 284512.000
 396  397 1 0.1090 284512.000
 396  398 1 0.1090 284512.000
 396  399 1 0.1410 267776.000
 399  400 1 0.1327 179075.200
 400  401 1 0.1229 476976.000
 400  402 1 0.1444 343088.000
 402  403 1 0.1340 459403.200
 402  406 1 0.1510 265265.600
 403  404 1 0.1080 284512.000
 403  405 1 0.1080 284512.000
 403  417 1 0.152900 224262.400000
 406  407 1 0.1090 284512.000
 406  408 1 0.1090 284512.000
 406  409 1 0.1090 284512.000
 410  411 1 0.1090 284512.000
 411  412 1 0.1090 284512.000
 411  413 1 0.1090 284512.000
 411  414 1 0.1410 267776.000
 414  415 1 0.1327 179075.200
 415  416 1 0.1229 476976.000
 415  417 1 0.1444 343088.000
 417  418 1 0.1340 459403.200
 417  421 1 0.1510 265265.600
 418  419 1 0.1080 284512.000
 418  420 1 0.1080 284512.000
 418  432 1 0.152900 224262.400000
 421  422 1 0.1090 284512.000
 421  423 1 0.1090 284512.000
 421  424 1 0.1090 284512.000
 425  426 1 0.1090 284512.000
 426  427 1 0.1090 284512.000
 426  428 1 0.1090 284512.000
 426  429 1 0.1410 267776.000
 429  430 1 0.1327 179075.200
 430  431 1 0.1229 476976.000
 430  432 1 0.1444 343088.000
 432  433 1 0.1340 459403.200
 432  436 1 0.1510 265265.600
 433  434 1 0.1080 284512.000
 433  435 1 0.1080 284512.000
 433  447 1 0.152900 224262.400000
 436  437 1 0.1090 284512.000
 436  438 1 0.1090 284512.000
 436  439 1 0.1090 284512.000
 440  441 1 0.1090 284512.000
 441  442 1 0.1090 284512.000
 441  443 1 0.1090 284512.000
 441  444 1 0.1410 267776.000
 444  445 1 0.1327 179075.200
 445  446 1 0.1229 476976.000
 445  447 1 0.1444 343088.000
 447  448 1 0.1340 459403.200
 447  451 1 0.1510 265265.600
 448  449 1 0.1080 284512.000
 448  450 1 0.1080 284512.000
 448  462 1 0.152900 224262.400000
 451  452 1 0.1090 284512.000
 451  453 1 0.1090 284512.000
 451  454 1 0.1090 284512.000
 455  456 1 0.1090 284512.000
 456  457 1 0.1090 284512.000
 456  458 1 0.1090 284512.000
 456  459 1 0.1410 267776.000
 459  460 1 0.1327 179075.200
 460  461 1 0.1229 476976.000
 460  462 1 0.1444 343088.000
 462  463 1 0.1340 459403.200
 462  466 1 0.1510 265265.600
 463  464 1 0.1080 284512.000
 463  465 1 0.1080 284512.000
 463  477 1 0.152900 224262.400000
 466  467 1 0.1090 284512.000
 466  468 1 0.1090 284512.000
 466  469 1 0.1090 284512.000
 470  471 1 0.1090 284512.000
 471  472 1 0.1090 284512.000
 471  473 1 0.1090 284512.000
 471  474 1 0.1410 267776.000
 474  475 1 0.1327 179075.200
 475  476 1 0.1229 476976.000
 475  477 1 0.1444 343088.000
 477  478 1 0.1340 459403.200
 477  481 1 0.1510 265265.600
 478  479 1 0.1080 284512.000
 478  480 1 0.1080 284512.000
 478  492 1 0.152900 224262.400000
 481  482 1 0.1090 284512.000
 481  483 1 0.1090 284512.000
 481  484 1 0.1090 284512.000
 485  486 1 0.1090 284512.000
 486  487 1 0.1090 284512.000
 486  488 1 0.1090 284512.000
 486  489 1 0.1410 267776.000
 489  490 1 0.1327 179075.200
 490  491 1 0.1229 476976.000
 490  492 1 0.1444 343088.000
 492  493 1 0.1340 459403.200
 492  496 1 0.1510 265265.600
 493  494 1 0.1080 284512.000
 493  495 1 0.1080 284512.000
 493  507 1 0.152900 224262.400000
 496  497 1 0.1090 284512.000
 496  498 1 0.1090 284512.000
 496  499 1 0.1090 284512.000
 500  501 1 0.1090 284512.000
 501  502 1 0.1090 284512.000
 501  503 1 0.1090 284512.000
 501  504 1 0.1410 267776.000
 504  505 1 0.1327 179075.200
 505  506 1 0.1229 476976.000
 505  507 1 0.1444 343088.000
 507  508 1 0.1340 459403.200
 507  511 1 0.1510 265265.600
 508  509 1 0.1080 284512.000
 508  510 1 0.1080 284512.000
 508  522 1 0.152900 224262.400000
 511  512 1 0.1090 284512.000
 511  513 1 0.1090 284512.000
 511  514 1 0.1090 284512.000
 515  516 1 0.1090 284512.000
 516  517 1 0.1090 284512.000
 516  518 1 0.1090 284512.000
 516  519 1 0.1410 267776.000
 519  520 1 0.1327 179075.200
 520  521 1 0.1229 476976.000
 520  522 1 0.1444 343088.000
 522  523 1 0.1340 459403.200
 522  526 1 0.1510 265265.600
 523  524 1 0.1080 284512.000
 523  525 1 0.1080 284512.000
 523  537 1 0.152900 224262.400000
 526  527 1 0.1090 284512.000
 526  528 1 0.1090 284512.000
 526  529 1 0.1090 284512.000
 530  531 1 0.1090 284512.000
 531  532 1 0.1090 284512.000
 531  533 1 0.1090 284512.000
 531  534 1 0.1410 267776.000
 534  535 1 0.1327 179075.200
 535  536 1 0.1229 476976.000
 535  537 1 0.1444 343088.000
 537  538 1 0.1340 459403.200
 537  541 1 0.1510 265265.600
 538  539 1 0.1080 284512.000
 538  540 1 0.1080 284512.000
 538  552 1 0.152900 224262.400000
 541  542 1 0.1090 284512.000
 541  543 1 0.1090 284512.000
 541  544 1 0.1090 284512.000
 545  546 1 0.1090 284512.000
 546  547 1 0.1090 284512.000
 546  548 1 0.1090 284512.000
 546  549 1 0.1410 267776.000
 549  550 1 0.1327 179075.200
 550  551 1 0.1229 476976.000
 550  552 1 0.1444 343088.000
 552  553 1 0.1340 459403.200
 552  556 1 0.1510 265265.600
 553  554 1 0.1080 284512.000
 553  555 1 0.1080 284512.000
 553  567 1 0.152900 224262.400000
 556  557 1 0.1090 284512.000
 556  558 1 0.1090 284512.000
 556  559 1 0.1090 284512.000
 560  561 1 0.1090 284512.000
 561  562 1 0.1090 284512.000
 561  563 1 0.1090 284512.000
 561  564 1 0.1410 267776.000
 564  565 1 0.1327 179075.200
 565  566 1 0.1229 476976.000
 565  567 1 0.1444 343088.000
 567  568 1 0.1340 459403.200
 567  571 1 0.1510 265265.600
 568  569 1 0.1080 284512.000
 568  570 1 0.1080 284512.000
 568  582 1 0.152900 224262.400000
 571  572 1 0.1090 284512.000
 571  573 1 0.1090 284512.000
 571  574 1 0.1090 284512.000
 575  576 1 0.1090 284512.000
 576  577 1 0.1090 284512.000
 576  578 1 0.1090 284512.000
 576  579 1 0.1410 267776.000
 579  580 1 0.1327 179075.200
 580  581 1 0.1229 476976.000
 580  582 1 0.1444 343088.000
 582  583 1 0.1340 459403.200
 582  586 1 0.1510 265265.600
 583  584 1 0.1080 284512.000
 583  585 1 0.1080 284512.000
 583  597 1 0.152900 224262.400000
 586  587 1 0.1090 284512.000
 586  588 1 0.1090 284512.000
 586  589 1 0.1090 284512.000
 590  591 1 0.1090 284512.000
 591  592 1 0.1090 284512.000
 591  593 1 0.1090 284512.000
 591  594 1 0.1410 267776.000
 594  595 1 0.1327 179075.200
 595  596 1 0.1229 476976.000
 595  597 1 0.1444 343088.000
 597  598 1 0.1340 459403.200
 597  601 1 0.1510 265265.600
 598  599 1 0.1080 284512.000
 598  600 1 0.1080 284512.000
 598  612 1 0.152900 224262.400000
 601  602 1 0.1090 284512.000
 601  603 1 0.1090 284512.000
 601  604 1 0.1090 284512.000
 605  606 1 0.1090 284512.000
 606  607 1 0.1090 284512.000
 606  608 1 0.1090 284512.000
 606  609 1 0.1410 267776.000
 609  610 1 0.1327 179075.200
 610  611 1 0.1229 476976.000
 610  612 1 0.1444 343088.000
 612  613 1 0.1340 459403.200
 612  616 1 0.1510 265265.600
 613  614 1 0.1080 284512.000
 613  615 1 0.1080 284512.000
 613  627 1 0.152900 224262.400000
 616  617 1 0.1090 284512.000
 616  618 1 0.1090 284512.000
 616  619 1 0.1090 284512.000
 620  621 1 0.1090 284512.000
 621  622 1 0.1090 284512.000
 621  623 1 0.1090 284512.000
 621  624 1 0.1410 267776.000
 624  625 1 0.1327 179075.200
 625  626 1 0.1229 476976.000
 625  627 1 0.1444 343088.000
 627  628 1 0.1340 459403.200
 627  631 1 0.1510 265265.600
 628  629 1 0.1080 284512.000
 628  630 1 0.1080 284512.000
 628  642 1 0.152900 224262.400000
 631  632 1 0.1090 284512.000
 631  633 1 0.1090 284512.000
 631  634 1 0.1090 284512.000
 635  636 1 0.1090 284512.000
 636  637 1 0.1090 284512.000
 636  638 1 0.1090 284512.000
 636  639 1 0.1410 267776.000
 639  640 1 0.1327 179075.200
 640  641 1 0.1229 476976.000
 640  642 1 0.1444 343088.000
 642  643 1 0.1340 459403.200
 642  646 1 0.1510 265265.600
 643  644 1 0.1080 284512.000
 643  645 1 0.1080 284512.000
 643  657 1 0.152900 224262.400000
 646  647 1 0.1090 284512.000
 646  648 1 0.1090 284512.000
 646  649 1 0.1090 284512.000
 650  651 1 0.1090 284512.000
 651  652 1 0.1090 284512.000
 651  653 1 0.1090 284512.000
 651  654 1 0.1410 267776.000
 654  655 1 0.1327 179075.200
 655  656 1 0.1229 476976.000
 655  657 1 0.1444 343088.000
 657  658 1 0.1340 459403.200
 657  661 1 0.1510 265265.600
 658  659 1 0.1080 284512.000
 658  660 1 0.1080 284512.000
 658  672 1 0.152900 224262.400000
 661  662 1 0.1090 284512.000
 661  663 1 0.1090 284512.000
 661  664 1 0.1090 284512.000
 665  666 1 0.1090 284512.000
 666  667 1 0.1090 284512.000
 666  668 1 0.1090 284512.000
 666  669 1 0.1410 267776.000
 669  670 1 0.1327 179075.200
 670  671 1 0.1229 476976.000
 670  672 1 0.1444 343088.000
 672  673 1 0.1340 459403.200
 672  676 1 0.1510 265265.600
 673  674 1 0.1080 284512.000
 673  675 1 0.1080 284512.000
 673  687 1 0.152900 224262.400000
 676  677 1 0.1090 284512.000
 676  678 1 0.1090 284512.000
 676  679 1 0.1090 284512.000
 680  681 1 0.1090 284512.000
 681  682 1 0.1090 284512.000
 681  683 1 0.1090 284512.000
 681  684 1 0.1410 267776.000
 684  685 1 0.1327 179075.200
 685  686 1 0.1229 476976.000
 685  687 1 0.1444 343088.000
 687  688 1 0.1340 459403.200
 687  691 1 0.1510 265265.600
 688  689 1 0.1080 284512.000
 688  690 1 0.1080 284512.000
 688  702 1 0.152900 224262.400000
 691  692 1 0.1090 284512.000
 691  693 1 0.1090 284512.000
 691  694 1 0.1090 284512.000
 695  696 1 0.1090 284512.000
 696  697 1 0.1090 284512.000
 696  698 1 0.1090 284512.000
 696  699 1 0.1410 267776.000
 699  700 1 0.1327 179075.200
 700  701 1 0.1229 476976.000
 700  702 1 0.1444 343088.000
 702  703 1 0.1340 459403.200
 702  706 1 0.1510 265265.600
 703  704 1 0.1080 284512.000
 703  705 1 0.1080 284512.000
 703  717 1 0.152900 224262.400000
 706  707 1 0.1090 284512.000
 706  708 1 0.1090 284512.000
 706  709 1 0.1090 284512.000
 710  711 1 0.1090 284512.000
 711  712 1 0.1090 284512.000
 711  713 1 0.1090 284512.000
 711  714 1 0.1410 267776.000
 714  715 1 0.1327 179075.200
 715  716 1 0.1229 476976.000
 715  717 1 0.1444 343088.000
 717  718 1 0.1340 459403.200
 717  721 1 0.1510 265265.600
 718  719 1 0.1080 284512.000
 718  720 1 0.1080 284512.000
 718  732 1 0.152900 224262.400000
 721  722 1 0.1090 284512.000
 721  723 1 0.1090 284512.000
 721  724 1 0.1090 284512.000
 725  726 1 0.1090 284512.000
 726  727 1 0.1090 284512.000
 726  728 1 0.1090 284512.000
 726  729 1 0.1410 267776.000
 729  730 1 0.1327 179075.200
 730  731 1 0.1229 476976.000
 730  732 1 0.1444 343088.000
 732  733 1 0.1340 459403.200
 732  736 1 0.1510 265265.600
 733  734 1 0.1080 284512.000
 733  735 1 0.1080 284512.000
 733  747 1 0.152900 224262.400000
 736  737 1 0.1090 284512.000
 736  738 1 0.1090 284512.000
 736  739 1 0.1090 284512.000
 740  741 1 0.1090 284512.000
 741  742 1 0.1090 284512.000
 741  743 1 0.1090 284512.000
 741  744 1 0.1410 267776.000
 744  745 1 0.1327 179075.200
 745  746 1 0.1229 476976.000
 745  747 1 0.1444 343088.000
 747  748 1 0.1340 459403.200
 747  751 1 0.1510 265265.600
 748  749 1 0.1080 284512.000
 748  750 1 0.1080 284512.000
 748  762 1 0.152900 224262.400000
 751  752 1 0.1090 284512.000
 751  753 1 0.1090 284512.000
 751  754 1 0.1090 284512.000
 755  756 1 0.1090 284512.000
 756  757 1 0.1090 284512.000
 756  758 1 0.1090 284512.000
 756  759 1 0.1410 267776.000
 759  760 1 0.1327 179075.200
 760  761 1 0.1229 476976.000
 760  762 1 0.1444 343088.000
 762  763 1 0.1340 459403.200
 762  766 1 0.1510 265265.600
 763  764 1 0.1080 284512.000
 763  765 1 0.1080 284512.000
 763  777 1 0.152900 224262.400000
 766  767 1 0.1090 284512.000
 766  768 1 0.1090 284512.000
 766  769 1 0.1090 284512.000
 770  771 1 0.1090 284512.000
 771  772 1 0.1090 284512.000
 771  773 1 0.1090 284512.000
 771  774 1 0.1410 267776.000
 774  775 1 0.1327 179075.200
 775  776 1 0.1229 476976.000
 775  777 1 0.1444 343088.000
 777  778 1 0.1340 459403.200
 777  781 1 0.1510 265265.600
 778  779 1 0.1080 284512.000
 778  780 1 0.1080 284512.000
 778  792 1 0.152900 224262.400000
 781  782 1 0.1090 284512.000
 781  783 1 0.1090 284512.000
 781  784 1 0.1090 284512.000
 785  786 1 0.1090 284512.000
 786  787 1 0.1090 284512.000
 786  788 1 0.1090 284512.000
 786  789 1 0.1410 267776.000
 789  790 1 0.1327 179075.200
 790  791 1 0.1229 476976.000
 790  792 1 0.1444 343088.000
 792  793 1 0.1340 459403.200
 792  796 1 0.1510 265265.600
 793  794 1 0.1080 284512.000
 793  795 1 0.1080 284512.000
 793  807 1 0.152900 224262.400000
 796  797 1 0.1090 284512.000
 796  798 1 0.1090 284512.000
 796  799 1 0.1090 284512.000
 800  801 1 0.1090 284512.000
 801  802 1 0.1090 284512.000
 801  803 1 0.1090 284512.000
 801  804 1 0.1410 267776.000
 804  805 1 0.1327 179075.200
 805  806 1 0.1229 476976.000
 805  807 1 0.1444 343088.000
 807  808 1 0.1340 459403.200
 807  811 1 0.1510 265265.600
 808  809 1 0.1080 284512.000
 808  810 1 0.1080 284512.000
 808  822 1 0.152900 224262.400000
 811  812 1 0.1090 284512.000
 811  813 1 0.1090 284512.000
 811  814 1 0.1090 284512.000
 815  816 1 0.1090 284512.000
 816  817 1 0.1090 284512.000
 816  818 1 0.1090 284512.000
 816  819 1 0.1410 267776.000
 819  820 1 0.1327 179075.200
 820  821 1 0.1229 476976.000
 820  822 1 0.1444 343088.000
 822  823 1 0.1340 459403.200
 822  826 1 0.1510 265265.600
 823  824 1 0.1080 284512.000
 823  825 1 0.1080 284512.000
 823  837 1 0.152900 224262.400000
 826  827 1 0.1090 284512.000
 826  828 1 0.1090 284512.000
 826  829 1 0.1090 284512.000
 830  831 1 0.1090 284512.000
 831  832 1 0.1090 284512.000
 831  833 1 0.1090 284512.000
 831  834 1 0.1410 267776.000
 834  835 1 0.1327 179075.200
 835  836 1 0.1229 476976.000
 835  837 1 0.1444 343088.000
 837  838 1 0.1340 459403.200
 837  841 1 0.1510 265265.600
 838  839 1 0.1080 284512.000
 838  840 1 0.1080 284512.000
 838  852 1 0.152900 224262.400000
 841  842 1 0.1090 284512.000
 841  843 1 0.1090 284512.000
 841  844 1 0.1090 284512.000
 845  846 1 0.1090 284512.000
 846  847 1 0.1090 284512.000
 846  848 1 0.1090 284512.000
 846  849 1 0.1410 267776.000
 849  850 1 0.1327 179075.200
 850  851 1 0.1229 476976.000
 850  852 1 0.1444 343088.000
 852  853 1 0.1340 459403.200
 852  856 1 0.1510 265265.600
 853  854 1 0.1080 284512.000
 853  855 1 0.1080 284512.000
 853  867 1 0.152900 224262.400000
 856  857 1 0.1090 284512.000
 856  858 1 0.1090 284512.000
 856  859 1 0.1090 284512.000
 860  861 1 0.1090 284512.000
 861  862 1 0.1090 284512.000
 861  863 1 0.1090 284512.000
 861  864 1 0.1410 267776.000
 864  865 1 0.1327 179075.200
 865  866 1 0.1229 476976.000
 865  867 1 0.1444 343088.000
 867  868 1 0.1340 459403.200
 867  871 1 0.1510 265265.600
 868  869 1 0.1080 284512.000
 868  870 1 0.1080 284512.000
 868  879 1 0.152900 224262.400000
 871  872 1 0.1090 284512.000
 871  873 1 0.1090 284512.000
 871  874 1 0.1090 284512.000
 875  876 1 0.1090 284512.000
 876  877 1 0.1090 284512.000
 876  878 1 0.1090 284512.000
 876  879 1 0.1510 265265.600
 879  880 1 0.1340 459403.200
 879  883 1 0.1444 343088.000
 880  881 1 0.1080 284512.000
 880  882 1 0.1080 284512.000
 880  915 1 0.152900 224262.400000
 883  884 1 0.1229 476976.000
 883  885 1 0.1327 179075.200
 885  886 1 0.1410 267776.000
 886  887 1 0.1090 284512.000
 886  888 1 0.1090 284512.000
 886  889 1 0.1529 224262.400
 889  890 1 0.1090 284512.000
 889  891 1 0.1529 224262.400
 889  898 1 0.1529 224262.400
 891  892 1 0.1090 284512.000
 891  893 1 0.1090 284512.000
 891  894 1 0.1529 224262.400
 894  895 1 0.1090 284512.000
 894  896 1 0.1090 284512.000
 894  897 1 0.1090 284512.000
 898  899 1 0.1090 284512.000
 898  900 1 0.1090 284512.000
 898  901 1 0.1529 224262.400
 901  902 1 0.1090 284512.000
 901  903 1 0.1090 284512.000
 901  904 1 0.1529 224262.400
 904  905 1 0.1090 284512.000
 904  906 1 0.1090 284512.000
 904  907 1 0.1529 224262.400
 907  908 1 0.1090 284512.000
 907  909 1 0.1090 284512.000
 907  910 1 0.1090 284512.000
 911  912 1 0.1090 284512.000
 912  913 1 0.1090 284512.000
 912  914 1 0.1090 284512.000
 912  915 1 0.1510 265265.600
 915  916 1 0.1340 459403.200
 915  919 1 0.1444 343088.000
 916  917 1 0.1080 284512.000
 916  918 1 0.1080 284512.000
 916  981 1 0.152900 224262.400000
 919  920 1 0.1229 476976.000
 919  921 1 0.1327 179075.200
 921  922 1 0.1410 267776.000
 922  923 1 0.1090 284512.000
 922  924 1 0.1090 284512.000
 922  925 1 0.1529 224262.400
 925  926 1 0.1090 284512.000
 925  927 1 0.1090 284512.000
 925  928 1 0.1529 224262.400
 928  929 1 0.1090 284512.000
 928  930 1 0.1090 284512.000
 928  931 1 0.1529 224262.400
 931  932 1 0.1090 284512.000
 931  933 1 0.1090 284512.000
 931  934 1 0.1529 224262.400
 934  935 1 0.1090 284512.000
 934  936 1 0.1090 284512.000
 934  937 1 0.1529 224262.400
 937  938 1 0.1090 284512.000
 937  939 1 0.1090 284512.000
 937  940 1 0.1529 224262.400
 940  941 1 0.1090 284512.000
 940  942 1 0.1090 284512.000
 940  943 1 0.1529 224262.400
 943  944 1 0.1090 284512.000
 943  945 1 0.1090 284512.000
 943  946 1 0.1529 224262.400
 946  947 1 0.1090 284512.000
 946  948 1 0.1090 284512.000
 946  949 1 0.1529 224262.400
 949  950 1 0.1090 284512.000
 949  951 1 0.1090 284512.000
 949  952 1 0.1529 224262.400
 952  953 1 0.1090 284512.000
 952  954 1 0.1090 284512.000
 952  955 1 0.1529 224262.400
 955  956 1 0.1090 284512.000
 955  957 1 0.1090 284512.000
 955  958 1 0.1529 224262.400
 958  959 1 0.1090 284512.000
 958  960 1 0.1090 284512.000
 958  961 1 0.1529 224262.400
 961  962 1 0.1090 284512.000
 961  963 1 0.1090 284512.000
 961  964 1 0.1529 224262.400
 964  965 1 0.1090 284512.000
 964  966 1 0.1090 284512.000
 964  967 1 0.1529 224262.400
 967  968 1 0.1090 284512.000
 967  969 1 0.1090 284512.000
 967  970 1 0.1529 224262.400
 970  971 1 0.1090 284512.000
 970  972 1 0.1090 284512.000
 970  973 1 0.1529 224262.400
 973  974 1 0.1090 284512.000
 973  975 1 0.1090 284512.000
 973  976 1 0.1090 284512.000
 977  978 1 0.1090 284512.000
 978  979 1 0.1090 284512.000
 978  980 1 0.1090 284512.000
 978  981 1 0.1510 265265.600
 981  982 1 0.1340 459403.200
 981  985 1 0.1444 343088.000
 982  983 1 0.1080 284512.000
 982  984 1 0.1080 284512.000
 982 1047 1 0.152900 224262.400000
 985  986 1 0.1229 476976.000
 985  987 1 0.1327 179075.200
 987  988 1 0.1410 267776.000
 988  989 1 0.1090 284512.000
 988  990 1 0.1090 284512.000
 988  991 1 0.1529 224262.400
 991  992 1 0.1090 284512.000
 991  993 1 0.1090 284512.000
 991  994 1 0.1529 224262.400
 994  995 1 0.1090 284512.000
 994  996 1 0.1090 284512.000
 994  997 1 0.1529 224262.400
 997  998 1 0.1090 284512.000
 997  999 1 0.1090 284512.000
 997 1000 1 0.1529 224262.400
1000 1001 1 0.1090 284512.000
1000 1002 1 0.1090 284512.000
1000 1003 1 0.1529 224262.400
1003 1004 1 0.1090 284512.000
1003 1005 1 0.1090 284512.000
1003 1006 1 0.1529 224262.400
1006 1007 1 0.1090 284512.000
1006 1008 1 0.1090 284512.000
1006 1009 1 0.1529 224262.400
1009 1010 1 0.1090 284512.000
1009 1011 1 0.1090 284512.000
1009 1012 1 0.1529 224262.400
1012 1013 1 0.1090 284512.000
1012 1014 1 0.1090 284512.000
1012 1015 1 0.1529 224262.400
1015 1016 1 0.1090 284512.000
1015 1017 1 0.1090 284512.000
1015 1018 1 0.1529 224262.400
1018 1019 1 0.1090 284512.000
1018 1020 1 0.1090 284512.000
1018 1021 1 0.1529 224262.400
1021 1022 1 0.1090 284512.000
1021 1023 1 0.1090 284512.000
1021 1024 1 0.1529 224262.400
1024 1025 1 0.1090 284512.000
1024 1026 1 0.1090 284512.000
1024 1027 1 0.1529 224262.400
1027 1028 1 0.1090 284512.000
1027 1029 1 0.1090 284512.000
1027 1030 1 0.1529 224262.400
1030 1031 1 0.1090 284512.000
1030 1032 1 0.1090 284512.000
1030 1033 1 0.1529 224262.400
1033 1034 1 0.1090 284512.000
1033 1035 1 0.1090 284512.000
1033 1036 1 0.1529 224262.400
1036 1037 1 0.1090 284512.000
1036 1038 1 0.1090 284512.000
1036 1039 1 0.1529 224262.400
1039 1040 1 0.1090 284512.000
1039 1041 1 0.1090 284512.000
1039 1042 1 0.1090 284512.000
1043 1044 1 0.1090 284512.000
1044 1045 1 0.1090 284512.000
1044 1046 1 0.1090 284512.000
1044 1047 1 0.1510 265265.600
1047 1048 1 0.1340 459403.200
1047 1051 1 0.1444 343088.000
1048 1049 1 0.1080 284512.000
1048 1050 1 0.1080 284512.000
1048 1113 1 0.152900 224262.400000
1051 1052 1 0.1229 476976.000
1051 1053 1 0.1327 179075.200
1053 1054 1 0.1410 267776.000
1054 1055 1 0.1090 284512.000
1054 1056 1 0.1090 284512.000
1054 1057 1 0.1529 224262.400
1057 1058 1 0.1090 284512.000
1057 1059 1 0.1090 284512.000
1057 1060 1 0.1529 224262.400
1060 1061 1 0.1090 284512.000
1060 1062 1 0.1090 284512.000
1060 1063 1 0.1529 224262.400
1063 1064 1 0.1090 284512.000
1063 1065 1 0.1090 284512.000
1063 1066 1 0.1529 224262.400
1066 1067 1 0.1090 284512.000
1066 1068 1 0.1090 284512.000
1066 1069 1 0.1529 224262.400
1069 1070 1 0.1090 284512.000
1069 1071 1 0.1090 284512.000
1069 1072 1 0.1529 224262.400
1072 1073 1 0.1090 284512.000
1072 1074 1 0.1090 284512.000
1072 1075 1 0.1529 224262.400
1075 1076 1 0.1090 284512.000
1075 1077 1 0.1090 284512.000
1075 1078 1 0.1529 224262.400
1078 1079 1 0.1090 284512.000
1078 1080 1 0.1090 284512.000
1078 1081 1 0.1529 224262.400
1081 1082 1 0.1090 284512.000
1081 1083 1 0.1090 284512.000
1081 1084 1 0.1529 224262.400
1084 1085 1 0.1090 284512.000
1084 1086 1 0.1090 284512.000
1084 1087 1 0.1529 224262.400
1087 1088 1 0.1090 284512.000
1087 1089 1 0.1090 284512.000
1087 1090 1 0.1529 224262.400
1090 1091 1 0.1090 284512.000
1090 1092 1 0.1090 284512.000
1090 1093 1 0.1529 224262.400
1093 1094 1 0.1090 284512.000
1093 1095 1 0.1090 284512.000
1093 1096 1 0.1529 224262.400
1096 1097 1 0.1090 284512.000
1096 1098 1 0.1090 284512.000
1096 1099 1 0.1529 224262.400
1099 1100 1 0.1090 284512.000
1099 1101 1 0.1090 284512.000
1099 1102 1 0.1529 224262.400
1102 1103 1 0.1090 284512.000
1102 1104 1 0.1090 284512.000
1102 1105 1 0.1529 224262.400
1105 1106 1 0.1090 284512.000
1105 1107 1 0.1090 284512.000
1105 1108 1 0.1090 284512.000
1109 1110 1 0.1090 284512.000
1110 1111 1 0.1090 284512.000
1110 1112 1 0.1090 284512.000
1110 1113 1 0.1510 265265.600
1113 1114 1 0.1340 459403.200
1113 1117 1 0.1444 343088.000
1114 1115 1 0.1080 284512.000
1114 1116 1 0.1080 284512.000
1114 1179 1 0.152900 224262.400000
1117 1118 1 0.1229 476976.000
1117 1119 1 0.1327 179075.200
1119 1120 1 0.1410 267776.000
1120 1121 1 0.1090 284512.000
1120 1122 1 0.1090 284512.000
1120 1123 1 0.1529 224262.400
1123 1124 1 0.1090 284512.000
1123 1125 1 0.1090 284512.000
1123 1126 1 0.1529 224262.400
1126 1127 1 0.1090 284512.000
1126 1128 1 0.1090 284512.000
1126 1129 1 0.1529 224262.400
1129 1130 1 0.1090 284512.000
1129 1131 1 0.1090 284512.000
1129 1132 1 0.1529 224262.400
1132 1133 1 0.1090 284512.000
1132 1134 1 0.1090 284512.000
1132 1135 1 0.1529 224262.400
1135 1136 1 0.1090 284512.000
1135 1137 1 0.1090 284512.000
1135 1138 1 0.1529 224262.400
1138 1139 1 0.1090 284512.000
1138 1140 1 0.1090 284512.000
1138 1141 1 0.1529 224262.400
1141 1142 1 0.1090 284512.000
1141 1143 1 0.1090 284512.000
1141 1144 1 0.1529 224262.400
1144 1145 1 0.1090 284512.000
1144 1146 1 0.1090 284512.000
1144 1147 1 0.1529 224262.400
1147 1148 1 0.1090 284512.000
1147 1149 1 0.1090 284512.000
1147 1150 1 0.1529 224262.400
1150 1151 1 0.1090 284512.000
1150 1152 1 0.1090 284512.000
1150 1153 1 0.1529 224262.400
1153 1154 1 0.1090 284512.000
1153 1155 1 0.1090 284512.000
1153 1156 1 0.1529 224262.400
1156 1157 1 0.1090 284512.000
1156 1158 1 0.1090 284512.000
1156 1159 1 0.1529 224262.400
1159 1160 1 0.1090 284512.000
1159 1161 1 0.1090 284512.000
1159 1162 1 0.1529 224262.400
1162 1163 1 0.1090 284512.000
1162 1164 1 0.1090 284512.000
1162 1165 1 0.1529 224262.400
1165 1166 1 0.1090 284512.000
1165 1167 1 0.1090 284512.000
1165 1168 1 0.1529 224262.400
1168 1169 1 0.1090 284512.000
1168 1170 1 0.1090 284512.000
1168 1171 1 0.1529 224262.400
1171 1172 1 0.1090 284512.000
1171 1173 1 0.1090 284512.000
1171 1174 1 0.1090 284512.000
1175 1176 1 0.1090 284512.000
1176 1177 1 0.1090 284512.000
1176 1178 1 0.1090 284512.000
1176 1179 1 0.1510 265265.600
1179 1180 1 0.1340 459403.200
1179 1183 1 0.1444 343088.000
1180 1181 1 0.1080 284512.000
1180 1182 1 0.1080 284512.000
1180 1227 1 0.152900 224262.400000
1183 1184 1 0.1229 476976.000
1183 1185 1 0.1327 179075.200
1185 1186 1 0.1410 267776.000
1186 1187 1 0.1090 284512.000
1186 1188 1 0.1090 284512.000
1186 1189 1 0.1529 224262.400
1189 1190 1 0.1090 284512.000
1189 1191 1 0.1090 284512.000
1189 1192 1 0.1529 224262.400
1192 1193 1 0.1090 284512.000
1192 1194 1 0.1090 284512.000
1192 1195 1 0.1529 224262.400
1195 1196 1 0.1090 284512.000
1195 1197 1 0.1090 284512.000
1195 1198 1 0.1529 224262.400
1198 1199 1 0.1090 284512.000
1198 1200 1 0.1090 284512.000
1198 1201 1 0.1529 224262.400
1201 1202 1 0.1090 284512.000
1201 1203 1 0.1090 284512.000
1201 1204 1 0.1529 224262.400
1204 1205 1 0.1090 284512.000
1204 1206 1 0.1090 284512.000
1204 1207 1 0.1529 224262.400
1207 1208 1 0.1090 284512.000
1207 1209 1 0.1090 284512.000
1207 1210 1 0.1529 224262.400
1210 1211 1 0.1090 284512.000
1210 1212 1 0.1090 284512.000
1210 1213 1 0.1529 224262.400
1213 1214 1 0.1090 284512.000
1213 1215 1 0.1090 284512.000
1213 1216 1 0.1529 224262.400
1216 1217 1 0.1090 284512.000
1216 1218 1 0.1090 284512.000
1216 1219 1 0.1529 224262.400
1219 1220 1 0.1090 284512.000
1219 1221 1 0.1090 284512.000
1219 1222 1 0.1090 284512.000
1223 1224 1 0.1090 284512.000
1224 1225 1 0.1090 284512.000
1224 1226 1 0.1090 284512.000
1224 1227 1 0.1510 265265.600
1227 1228 1 0.1340 459403.200
1227 1231 1 0.1444 343088.000
1228 1229 1 0.1080 284512.000
1228 1230 1 0.1080 284512.000
1228 1263 1 0.152900 224262.400000
1231 1232 1 0.1229 476976.000
1231 1233 1 0.1327 179075.200
1233 1234 1 0.1410 267776.000
1234 1235 1 0.1090 284512.000
1234 1236 1 0.1090 284512.000
1234 1237 1 0.1529 224262.400
1237 1238 1 0.1090 284512.000
1237 1239 1 0.1529 224262.400
1237 1246 1 0.1529 224262.400
1239 1240 1 0.1090 284512.000
1239 1241 1 0.1090 284512.000
1239 1242 1 0.1529 224262.400
1242 1243 1 0.1090 284512.000
1242 1244 1 0.1090 284512.000
1242 1245 1 0.1090 284512.000
1246 1247 1 0.1090 284512.000
1246 1248 1 0.1090 284512.000
1246 1249 1 0.1529 224262.400
1249 1250 1 0.1090 284512.000
1249 1251 1 0.1090 284512.000
1249 1252 1 0.1529 224262.400
1252 1253 1 0.1090 284512.000
1252 1254 1 0.1090 284512.000
1252 1255 1 0.1529 224262.400
1255 1256 1 0.1090 284512.000
1255 1257 1 0.1090 284512.000
1255 1258 1 0.1090 284512.000
1259 1260 1 0.1090 284512.000
1260 1261 1 0.1090 284512.000
1260 1262 1 0.1090 284512.000
1260 1263 1 0.1510 265265.600
1263 1264 1 0.1340 459403.200
1263 1267 1 0.1444 343088.000
1264 1265 1 0.1080 284512.000
1264 1266 1 0.1080 284512.000
1264 1311 1 0.152900 224262.400000
1267 1268 1 0.1229 476976.000
1267 1269 1 0.1327 179075.200
1269 1270 1 0.1410 267776.000
1270 1271 1 0.1090 284512.000
1270 1272 1 0.1090 284512.000
1270 1273 1 0.1529 224262.400
1273 1274 1 0.1090 284512.000
1273 1275 1 0.1090 284512.000
1273 1276 1 0.1529 224262.400
1276 1277 1 0.1090 284512.000
1276 1278 1 0.1090 284512.000
1276 1279 1 0.1529 224262.400
1279 1280 1 0.1090 284512.000
1279 1281 1 0.1090 284512.000
1279 1282 1 0.1529 224262.400
1282 1283 1 0.1090 284512.000
1282 1284 1 0.1090 284512.000
1282 1285 1 0.1529 224262.400
1285 1286 1 0.1090 284512.000
1285 1287 1 0.1090 284512.000
1285 1288 1 0.1529 224262.400
1288 1289 1 0.1090 284512.000
1288 1290 1 0.1090 284512.000
1288 1291 1 0.1529 224262.400
1291 1292 1 0.1090 284512.000
1291 1293 1 0.1090 284512.000
1291 1294 1 0.1529 224262.400
1294 1295 1 0.1090 284512.000
1294 1296 1 0.1090 284512.000
1294 1297 1 0.1529 224262.400
1297 1298 1 0.1090 284512.000
1297 1299 1 0.1090 284512.000
1297 1300 1 0.1529 224262.400
1300 1301 1 0.1090 284512.000
1300 1302 1 0.1090 284512.000
1300 1303 1 0.1529 224262.400
1303 1304 1 0.1090 284512.000
1303 1305 1 0.1090 284512.000
1303 1306 1 0.1090 284512.000
1307 1308 1 0.1090 284512.000
1308 1309 1 0.1090 284512.000
1308 1310 1 0.1090 284512.000
1308 1311 1 0.1510 265265.600
1311 1312 1 0.1340 459403.200
1311 1315 1 0.1444 343088.000
1312 1313 1 0.1080 284512.000
1312 1314 1 0.1080 284512.000
1312 1377 1 0.152900 224262.400000
1315 1316 1 0.1229 476976.000
1315 1317 1 0.1327 179075.200
1317 1318 1 0.1410 267776.000
1318 1319 1 0.1090 284512.000
1318 1320 1 0.1090 284512.000
1318 1321 1 0.1529 224262.400
1321 1322 1 0.1090 284512.000
1321 1323 1 0.1090 284512.000
1321 1324 1 0.1529 224262.400
1324 1325 1 0.1090 284512.000
1324 1326 1 0.1090 284512.000
1324 1327 1 0.1529 224262.400
1327 1328 1 0.1090 284512.000
1327 1329 1 0.1090 284512.000
1327 1330 1 0.1529 224262.400
1330 1331 1 0.1090 284512.000
1330 1332 1 0.1090 284512.000
1330 1333 1 0.1529 224262.400
1333 1334 1 0.1090 284512.000
1333 1335 1 0.1090 284512.000
1333 1336 1 0.1529 224262.400
1336 1337 1 0.1090 284512.000
1336 1338 1 0.1090 284512.000
1336 1339 1 0.1529 224262.400
1339 1340 1 0.1090 284512.000
1339 1341 1 0.1090 284512.000
1339 1342 1 0.1529 224262.400
1342 1343 1 0.1090 284512.000
1342 1344 1 0.1090 284512.000
1342 1345 1 0.1529 224262.400
1345 1346 1 0.1090 284512.000
1345 1347 1 0.1090 284512.000
1345 1348 1 0.1529 224262.400
1348 1349 1 0.1090 284512.000
1348 1350 1 0.1090 284512.000
1348 1351 1 0.1529 224262.400
1351 1352 1 0.1090 284512.000
1351 1353 1 0.1090 284512.000
1351 1354 1 0.1529 224262.400
1354 1355 1 0.1090 284512.000
1354 1356 1 0.1090 284512.000
1354 1357 1 0.1529 224262.400
1357 1358 1 0.1090 284512.000
1357 1359 1 0.1090 284512.000
1357 1360 1 0.1529 224262.400
1360 1361 1 0.1090 284512.000
1360 1362 1 0.1090 284512.000
1360 1363 1 0.1529 224262.400
1363 1364 1 0.1090 284512.000
1363 1365 1 0.1090 284512.000
1363 1366 1 0.1529 224262.400
1366 1367 1 0.1090 284512.000
1366 1368 1 0.1090 284512.000
1366 1369 1 0.1529 224262.400
1369 1370 1 0.1090 284512.000
1369 1371 1 0.1090 284512.000
1369 1372 1 0.1090 284512.000
1373 1374 1 0.1090 284512.000
1374 1375 1 0.1090 284512.000
1374 1376 1 0.1090 284512.000
1374 1377 1 0.1510 265265.600
1377 1378 1 0.1340 459403.200
1377 1381 1 0.1444 343088.000
1378 1379 1 0.1080 284512.000
1378 1380 1 0.1080 284512.000
1378 1413 1 0.152900 224262.400000
1381 1382 1 0.1229 476976.000
1381 1383 1 0.1327 179075.200
1383 1384 1 0.1410 267776.000
1384 1385 1 0.1090 284512.000
1384 1386 1 0.1090 284512.000
1384 1387 1 0.1529 224262.400
1387 1388 1 0.1090 284512.000
1387 1389 1 0.1529 224262.400
1387 1396 1 0.1529 224262.400
1389 1390 1 0.1090 284512.000
1389 1391 1 0.1090 284512.000
1389 1392 1 0.1529 224262.400
1392 1393 1 0.1090 284512.000
1392 1394 1 0.1090 284512.000
1392 1395 1 0.1090 284512.000
1396 1397 1 0.1090 284512.000
1396 1398 1 0.1090 284512.000
1396 1399 1 0.1529 224262.400
1399 1400 1 0.1090 284512.000
1399 1401 1 0.1090 284512.000
1399 1402 1 0.1529 224262.400
1402 1403 1 0.1090 284512.000
1402 1404 1 0.1090 284512.000
1402 1405 1 0.1529 224262.400
1405 1406 1 0.1090 284512.000
1405 1407 1 0.1090 284512.000
1405 1408 1 0.1090 284512.000
1409 1410 1 0.1090 284512.000
1410 1411 1 0.1090 284512.000
1410 1412 1 0.1090 284512.000
1410 1413 1 0.1510 265265.600
1413 1414 1 0.1340 459403.200
1413 1417 1 0.1444 343088.000
1414 1415 1 0.1080 284512.000
1414 1416 1 0.1080 284512.000
1414 1461 1 0.152900 224262.400000
1417 1418 1 0.1229 476976.000
1417 1419 1 0.1327 179075.200
1419 1420 1 0.1410 267776.000
1420 1421 1 0.1090 284512.000
1420 1422 1 0.1090 284512.000
1420 1423 1 0.1529 224262.400
1423 1424 1 0.1090 284512.000
1423 1425 1 0.1090 284512.000
1423 1426 1 0.1529 224262.400
1426 1427 1 0.1090 284512.000
1426 1428 1 0.1090 284512.000
1426 1429 1 0.1529 224262.400
1429 1430 1 0.1090 284512.000
1429 1431 1 0.1090 284512.000
1429 1432 1 0.1529 224262.400
1432 1433 1 0.1090 284512.000
1432 1434 1 0.1090 284512.000
1432 1435 1 0.1529 224262.400
1435 1436 1 0.1090 284512.000
1435 1437 1 0.1090 284512.000
1435 1438 1 0.1529 224262.400
1438 1439 1 0.1090 284512.000
1438 1440 1 0.1090 284512.000
1438 1441 1 0.1529 224262.400
1441 1442 1 0.1090 284512.000
1441 1443 1 0.1090 284512.000
1441 1444 1 0.1529 224262.400
1444 1445 1 0.1090 284512.000
1444 1446 1 0.1090 284512.000
1444 1447 1 0.1529 224262.400
1447 1448 1 0.1090 284512.000
1447 1449 1 0.1090 284512.000
1447 1450 1 0.1529 224262.400
1450 1451 1 0.1090 284512.000
1450 1452 1 0.1090 284512.000
1450 1453 1 0.1529 224262.400
1453 1454 1 0.1090 284512.000
1453 1455 1 0.1090 284512.000
1453 1456 1 0.1090 284512.000
1457 1458 1 0.1090 284512.000
1458 1459 1 0.1090 284512.000
1458 1460 1 0.1090 284512.000
1458 1461 1 0.1510 265265.600
1461 1462 1 0.1340 459403.200
1461 1465 1 0.1444 343088.000
1462 1463 1 0.1080 284512.000
1462 1464 1 0.1080 284512.000
1462 1509 1 0.152900 224262.400000
1465 1466 1 0.1229 476976.000
1465 1467 1 0.1327 179075.200
1467 1468 1 0.1410 267776.000
1468 1469 1 0.1090 284512.000
1468 1470 1 0.1090 284512.000
1468 1471 1 0.1529 224262.400
1471 1472 1 0.1090 284512.000
1471 1473 1 0.1090 284512.000
1471 1474 1 0.1529 224262.400
1474 1475 1 0.1090 284512.000
1474 1476 1 0.1090 284512.000
1474 1477 1 0.1529 224262.400
1477 1478 1 0.1090 284512.000
1477 1479 1 0.1090 284512.000
1477 1480 1 0.1529 224262.400
1480 1481 1 0.1090 284512.000
1480 1482 1 0.1090 284512.000
1480 1483 1 0.1529 224262.400
1483 1484 1 0.1090 284512.000
1483 1485 1 0.1090 284512.000
1483 1486 1 0.1529 224262.400
1486 1487 1 0.1090 284512.000
1486 1488 1 0.1090 284512.000
1486 1489 1 0.1529 224262.400
1489 1490 1 0.1090 284512.000
1489 1491 1 0.1090 284512.000
1489 1492 1 0.1529 224262.400
1492 1493 1 0.1090 284512.000
1492 1494 1 0.1090 284512.000
1492 1495 1 0.1529 224262.400
1495 1496 1 0.1090 284512.000
1495 1497 1 0.1090 284512.000
1495 1498 1 0.1529 224262.400
1498 1499 1 0.1090 284512.000
1498 1500 1 0.1090 284512.000
1498 1501 1 0.1529 224262.400
1501 1502 1 0.1090 284512.000
1501 1503 1 0.1090 284512.000
1501 1504 1 0.1090 284512.000
1505 1506 1 0.1090 284512.000
1506 1507 1 0.1090 284512.000
1506 1508 1 0.1090 284512.000
1506 1509 1 0.1510 265265.600
1509 1510 1 0.1340 459403.200
1509 1513 1 0.1444 343088.000
1510 1511 1 0.1080 284512.000
1510 1512 1 0.1080 284512.000
1510 1545 1 0.152900 224262.400000
1513 1514 1 0.1229 476976.000
1513 1515 1 0.1327 179075.200
1515 1516 1 0.1410 267776.000
1516 1517 1 0.1090 284512.000
1516 1518 1 0.1090 284512.000
1516 1519 1 0.1529 224262.400
1519 1520 1 0.1090 284512.000
1519 1521 1 0.1529 224262.400
1519 1528 1 0.1529 224262.400
1521 1522 1 0.1090 284512.000
1521 1523 1 0.1090 284512.000
1521 1524 1 0.1529 224262.400
1524 1525 1 0.1090 284512.000
1524 1526 1 0.1090 284512.000
1524 1527 1 0.1090 284512.000
1528 1529 1 0.1090 284512.000
1528 1530 1 0.1090 284512.000
1528 1531 1 0.1529 224262.400
1531 1532 1 0.1090 284512.000
1531 1533 1 0.1090 284512.000
1531 1534 1 0.1529 224262.400
1534 1535 1 0.1090 284512.000
1534 1536 1 0.1090 284512.000
1534 1537 1 0.1529 224262.400
1537 1538 1 0.1090 284512.000
1537 1539 1 0.1090 284512.000
1537 1540 1 0.1090 284512.000
1541 1542 1 0.1090 284512.000
1542 1543 1 0.1090 284512.000
1542 1544 1 0.1090 284512.000
1542 1545 1 0.1510 265265.600
1545 1546 1 0.1340 459403.200
1545 1549 1 0.1444 343088.000
1546 1547 1 0.1080 284512.000
1546 1548 1 0.1080 284512.000
1546 1581 1 0.152900 224262.400000
1549 1550 1 0.1229 476976.000
1549 1551 1 0.1327 179075.200
1551 1552 1 0.1410 267776.000
1552 1553 1 0.1090 284512.000
1552 1554 1 0.1090 284512.000
1552 1555 1 0.1529 224262.400
1555 1556 1 0.1090 284512.000
1555 1557 1 0.1529 224262.400
1555 1564 1 0.1529 224262.400
1557 1558 1 0.1090 284512.000
1557 1559 1 0.1090 284512.000
1557 1560 1 0.1529 224262.400
1560 1561 1 0.1090 284512.000
1560 1562 1 0.1090 284512.000
1560 1563 1 0.1090 284512.000
1564 1565 1 0.1090 284512.000
1564 1566 1 0.1090 284512.000
1564 1567 1 0.1529 224262.400
1567 1568 1 0.1090 284512.000
1567 1569 1 0.1090 284512.000
1567 1570 1 0.1529 224262.400
1570 1571 1 0.1090 284512.000
1570 1572 1 0.1090 284512.000
1570 1573 1 0.1529 224262.400
1573 1574 1 0.1090 284512.000
1573 1575 1 0.1090 284512.000
1573 1576 1 0.1090 284512.000
1577 1578 1 0.1090 284512.000
1578 1579 1 0.1090 284512.000
1578 1580 1 0.1090 284512.000
1578 1581 1 0.1510 265265.600
1581 1582 1 0.1340 459403.200
1581 1585 1 0.1444 343088.000
1582 1583 1 0.1080 284512.000
1582 1584 1 0.1080 284512.000
1582 1629 1 0.152900 224262.400000
1585 1586 1 0.1229 476976.000
1585 1587 1 0.1327 179075.200
1587 1588 1 0.1410 267776.000
1588 1589 1 0.1090 284512.000
1588 1590 1 0.1090 284512.000
1588 1591 1 0.1529 224262.400
1591 1592 1 0.1090 284512.000
1591 1593 1 0.1090 284512.000
1591 1594 1 0.1529 224262.400
1594 1595 1 0.1090 284512.000
1594 1596 1 0.1090 284512.000
1594 1597 1 0.1529 224262.400
1597 1598 1 0.1090 284512.000
1597 1599 1 0.1090 284512.000
1597 1600 1 0.1529 224262.400
1600 1601 1 0.1090 284512.000
1600 1602 1 0.1090 284512.000
1600 1603 1 0.1529 224262.400
1603 1604 1 0.1090 284512.000
1603 1605 1 0.1090 284512.000
1603 1606 1 0.1529 224262.400
1606 1607 1 0.1090 284512.000
1606 1608 1 0.1090 284512.000
1606 1609 1 0.1529 224262.400
1609 1610 1 0.1090 284512.000
1609 1611 1 0.1090 284512.000
1609 1612 1 0.1529 224262.400
1612 1613 1 0.1090 284512.000
1612 1614 1 0.1090 284512.000
1612 1615 1 0.1529 224262.400
1615 1616 1 0.1090 284512.000
1615 1617 1 0.1090 284512.000
1615 1618 1 0.1529 224262.400
1618 1619 1 0.1090 284512.000
1618 1620 1 0.1090 284512.000
1618 1621 1 0.1529 224262.400
1621 1622 1 0.1090 284512.000
1621 1623 1 0.1090 284512.000
1621 1624 1 0.1090 284512.000
1625 1626 1 0.1090 284512.000
1626 1627 1 0.1090 284512.000
1626 1628 1 0.1090 284512.000
1626 1629 1 0.1510 265265.600
1629 1630 1 0.1340 459403.200
1629 1633 1 0.1444 343088.000
1630 1631 1 0.1080 284512.000
1630 1632 1 0.1080 284512.000
1630 1665 1 0.152900 224262.400000
1633 1634 1 0.1229 476976.000
1633 1635 1 0.1327 179075.200
1635 1636 1 0.1410 267776.000
1636 1637 1 0.1090 284512.000
1636 1638 1 0.1090 284512.000
1636 1639 1 0.1529 224262.400
1639 1640 1 0.1090 284512.000
1639 1641 1 0.1529 224262.400
1639 1648 1 0.1529 224262.400
1641 1642 1 0.1090 284512.000
1641 1643 1 0.1090 284512.000
1641 1644 1 0.1529 224262.400
1644 1645 1 0.1090 284512.000
1644 1646 1 0.1090 284512.000
1644 1647 1 0.1090 284512.000
1648 1649 1 0.1090 284512.000
1648 1650 1 0.1090 284512.000
1648 1651 1 0.1529 224262.400
1651 1652 1 0.1090 284512.000
1651 1653 1 0.1090 284512.000
1651 1654 1 0.1529 224262.400
1654 1655 1 0.1090 284512.000
1654 1656 1 0.1090 284512.000
1654 1657 1 0.1529 224262.400
1657 1658 1 0.1090 284512.000
1657 1659 1 0.1090 284512.000
1657 1660 1 0.1090 284512.000
1661 1662 1 0.1090 284512.000
1662 1663 1 0.1090 284512.000
1662 1664 1 0.1090 284512.000
1662 1665 1 0.1510 265265.600
1665 1666 1 0.1340 459403.200
1665 1669 1 0.1444 343088.000
1666 1667 1 0.1080 284512.000
1666 1668 1 0.1080 284512.000
1666 1701 1 0.152900 224262.400000
1669 1670 1 0.1229 476976.000
1669 1671 1 0.1327 179075.200
1671 1672 1 0.1410 267776.000
1672 1673 1 0.1090 284512.000
1672 1674 1 0.1090 284512.000
1672 1675 1 0.1529 224262.400
1675 1676 1 0.1090 284512.000
1675 1677 1 0.1529 224262.400
1675 1684 1 0.1529 224262.400
1677 1678 1 0.1090 284512.000
1677 1679 1 0.1090 284512.000
1677 1680 1 0.1529 224262.400
1680 1681 1 0.1090 284512.000
1680 1682 1 0.1090 284512.000
1680 1683 1 0.1090 284512.000
1684 1685 1 0.1090 284512.000
1684 1686 1 0.1090 284512.000
1684 1687 1 0.1529 224262.400
1687 1688 1 0.1090 284512.000
1687 1689 1 0.1090 284512.000
1687 1690 1 0.1529 224262.400
1690 1691 1 0.1090 284512.000
1690 1692 1 0.1090 284512.000
1690 1693 1 0.1529 224262.400
1693 1694 1 0.1090 284512.000
1693 1695 1 0.1090 284512.000
1693 1696 1 0.1090 284512.000
1697 1698 1 0.1090 284512.000
1698 1699 1 0.1090 284512.000
1698 1700 1 0.1090 284512.000
1698 1701 1 0.1510 265265.600
1701 1702 1 0.1340 459403.200
1701 1705 1 0.1444 343088.000
1702 1703 1 0.1080 284512.000
1702 1704 1 0.1080 284512.000
1702 1737 1 0.152900 224262.400000
1705 1706 1 0.1229 476976.000
1705 1707 1 0.1327 179075.200
1707 1708 1 0.1410 267776.000
1708 1709 1 0.1090 284512.000
1708 1710 1 0.1090 284512.000
1708 1711 1 0.1529 224262.400
1711 1712 1 0.1090 284512.000
1711 1713 1 0.1529 224262.400
1711 1720 1 0.1529 224262.400
1713 1714 1 0.1090 284512.000
1713 1715 1 0.1090 284512.000
1713 1716 1 0.1529 224262.400
1716 1717 1 0.1090 284512.000
1716 1718 1 0.1090 284512.000
1716 1719 1 0.1090 284512.000
1720 1721 1 0.1090 284512.000
1720 1722 1 0.1090 284512.000
1720 1723 1 0.1529 224262.400
1723 1724 1 0.1090 284512.000
1723 1725 1 0.1090 284512.000
1723 1726 1 0.1529 224262.400
1726 1727 1 0.1090 284512.000
1726 1728 1 0.1090 284512.000
1726 1729 1 0.1529 224262.400
1729 1730 1 0.1090 284512.000
1729 1731 1 0.1090 284512.000
1729 1732 1 0.1090 284512.000
1733 1734 1 0.1090 284512.000
1734 1735 1 0.1090 284512.000
1734 1736 1 0.1090 284512.000
1734 1737 1 0.1510 265265.600
1737 1738 1 0.1340 459403.200
1737 1741 1 0.1444 343088.000
1738 1739 1 0.1080 284512.000
1738 1740 1 0.1080 284512.000
1738 1785 1 0.152900 224262.400000
1741 1742 1 0.1229 476976.000
1741 1743 1 0.1327 179075.200
1743 1744 1 0.1410 267776.000
1744 1745 1 0.1090 284512.000
1744 1746 1 0.1090 284512.000
1744 1747 1 0.1529 224262.400
1747 1748 1 0.1090 284512.000
1747 1749 1 0.1090 284512.000
1747 1750 1 0.1529 224262.400
1750 1751 1 0.1090 284512.000
1750 1752 1 0.1090 284512.000
1750 1753 1 0.1529 224262.400
1753 1754 1 0.1090 284512.000
1753 1755 1 0.1090 284512.000
1753 1756 1 0.1529 224262.400
1756 1757 1 0.1090 284512.000
1756 1758 1 0.1090 284512.000
1756 1759 1 0.1529 224262.400
1759 1760 1 0.1090 284512.000
1759 1761 1 0.1090 284512.000
1759 1762 1 0.1529 224262.400
1762 1763 1 0.1090 284512.000
1762 1764 1 0.1090 284512.000
1762 1765 1 0.1529 224262.400
1765 1766 1 0.1090 284512.000
1765 1767 1 0.1090 284512.000
1765 1768 1 0.1529 224262.400
1768 1769 1 0.1090 284512.000
1768 1770 1 0.1090 284512.000
1768 1771 1 0.1529 224262.400
1771 1772 1 0.1090 284512.000
1771 1773 1 0.1090 284512.000
1771 1774 1 0.1529 224262.400
1774 1775 1 0.1090 284512.000
1774 1776 1 0.1090 284512.000
1774 1777 1 0.1529 224262.400
1777 1778 1 0.1090 284512.000
1777 1779 1 0.1090 284512.000
1777 1780 1 0.1090 284512.000
1781 1782 1 0.1090 284512.000
1782 1783 1 0.1090 284512.000
1782 1784 1 0.1090 284512.000
1782 1785 1 0.1510 265265.600
1785 1786 1 0.1340 459403.200
1785 1789 1 0.1444 343088.000
1786 1787 1 0.1080 284512.000
1786 1788 1 0.1080 284512.000
1786 1833 1 0.152900 224262.400000
1789 1790 1 0.1229 476976.000
1789 1791 1 0.1327 179075.200
1791 1792 1 0.1410 267776.000
1792 1793 1 0.1090 284512.000
1792 1794 1 0.1090 284512.000
1792 1795 1 0.1529 224262.400
1795 1796 1 0.1090 284512.000
1795 1797 1 0.1090 284512.000
1795 1798 1 0.1529 224262.400
1798 1799 1 0.1090 284512.000
1798 1800 1 0.1090 284512.000
1798 1801 1 0.1529 224262.400
1801 1802 1 0.1090 284512.000
1801 1803 1 0.1090 284512.000
1801 1804 1 0.1529 224262.400
1804 1805 1 0.1090 284512.000
1804 1806 1 0.1090 284512.000
1804 1807 1 0.1529 224262.400
1807 1808 1 0.1090 284512.000
1807 1809 1 0.1090 284512.000
1807 1810 1 0.1529 224262.400
1810 1811 1 0.1090 284512.000
1810 1812 1 0.1090 284512.000
1810 1813 1 0.1529 224262.400
1813 1814 1 0.1090 284512.000
1813 1815 1 0.1090 284512.000
1813 1816 1 0.1529 224262.400
1816 1817 1 0.1090 284512.000
1816 1818 1 0.1090 284512.000
1816 1819 1 0.1529 224262.400
1819 1820 1 0.1090 284512.000
1819 1821 1 0.1090 284512.000
1819 1822 1 0.1529 224262.400
1822 1823 1 0.1090 284512.000
1822 1824 1 0.1090 284512.000
1822 1825 1 0.1529 224262.400
1825 1826 1 0.1090 284512.000
1825 1827 1 0.1090 284512.000
1825 1828 1 0.1090 284512.000
1829 1830 1 0.1090 284512.000
1830 1831 1 0.1090 284512.000
1830 1832 1 0.1090 284512.000
1830 1833 1 0.1510 265265.600
1833 1834 1 0.1340 459403.200
1833 1837 1 0.1444 343088.000
1834 1835 1 0.1080 284512.000
1834 1836 1 0.1080 284512.000
1834 1869 1 0.152900 224262.400000
1837 1838 1 0.1229 476976.000
1837 1839 1 0.1327 179075.200
1839 1840 1 0.1410 267776.000
1840 1841 1 0.1090 284512.000
1840 1842 1 0.1090 284512.000
1840 1843 1 0.1529 224262.400
1843 1844 1 0.1090 284512.000
1843 1845 1 0.1529 224262.400
1843 1852 1 0.1529 224262.400
1845 1846 1 0.1090 284512.000
1845 1847 1 0.1090 284512.000
1845 1848 1 0.1529 224262.400
1848 1849 1 0.1090 284512.000
1848 1850 1 0.1090 284512.000
1848 1851 1 0.1090 284512.000
1852 1853 1 0.1090 284512.000
1852 1854 1 0.1090 284512.000
1852 1855 1 0.1529 224262.400
1855 1856 1 0.1090 284512.000
1855 1857 1 0.1090 284512.000
1855 1858 1 0.1529 224262.400
1858 1859 1 0.1090 284512.000
1858 1860 1 0.1090 284512.000
1858 1861 1 0.1529 224262.400
1861 1862 1 0.1090 284512.000
1861 1863 1 0.1090 284512.000
1861 1864 1 0.1090 284512.000
1865 1866 1 0.1090 284512.000
1866 1867 1 0.1090 284512.000
1866 1868 1 0.1090 284512.000
1866 1869 1 0.1510 265265.600
1869 1870 1 0.1340 459403.200
1869 1873 1 0.1444 343088.000
1870 1871 1 0.1080 284512.000
1870 1872 1 0.1080 284512.000
1870 1935 1 0.152900 224262.400000
1873 1874 1 0.1229 476976.000
1873 1875 1 0.1327 179075.200
1875 1876 1 0.1410 267776.000
1876 1877 1 0.1090 284512.000
1876 1878 1 0.1090 284512.000
1876 1879 1 0.1529 224262.400
1879 1880 1 0.1090 284512.000
1879 1881 1 0.1090 284512.000
1879 1882 1 0.1529 224262.400
1882 1883 1 0.1090 284512.000
1882 1884 1 0.1090 284512.000
1882 1885 1 0.1529 224262.400
1885 1886 1 0.1090 284512.000
1885 1887 1 0.1090 284512.000
1885 1888 1 0.1529 224262.400
1888 1889 1 0.1090 284512.000
1888 1890 1 0.1090 284512.000
1888 1891 1 0.1529 224262.400
1891 1892 1 0.1090 284512.000
1891 1893 1 0.1090 284512.000
1891 1894 1 0.1529 224262.400
1894 1895 1 0.1090 284512.000
1894 1896 1 0.1090 284512.000
1894 1897 1 0.1529 224262.400
1897 1898 1 0.1090 284512.000
1897 1899 1 0.1090 284512.000
1897 1900 1 0.1529 224262.400
1900 1901 1 0.1090 284512.000
1900 1902 1 0.1090 284512.000
1900 1903 1 0.1529 224262.400
1903 1904 1 0.1090 284512.000
1903 1905 1 0.1090 284512.000
1903 1906 1 0.1529 224262.400
1906 1907 1 0.1090 284512.000
1906 1908 1 0.1090 284512.000
1906 1909 1 0.1529 224262.400
1909 1910 1 0.1090 284512.000
1909 1911 1 0.1090 284512.000
1909 1912 1 0.1529 224262.400
1912 1913 1 0.1090 284512.000
1912 1914 1 0.1090 284512.000
1912 1915 1 0.1529 224262.400
1915 1916 1 0.1090 284512.000
1915 1917 1 0.1090 284512.000
1915 1918 1 0.1529 224262.400
1918 1919 1 0.1090 284512.000
1918 1920 1 0.1090 284512.000
1918 1921 1 0.1529 224262.400
1921 1922 1 0.1090 284512.000
1921 1923 1 0.1090 284512.000
1921 1924 1 0.1529 224262.400
1924 1925 1 0.1090 284512.000
1924 1926 1 0.1090 284512.000
1924 1927 1 0.1529 224262.400
1927 1928 1 0.1090 284512.000
1927 1929 1 0.1090 284512.000
1927 1930 1 0.1090 284512.000
1931 1932 1 0.1090 284512.000
1932 1933 1 0.1090 284512.000
1932 1934 1 0.1090 284512.000
1932 1935 1 0.1510 265265.600
1935 1936 1 0.1340 459403.200
1935 1939 1 0.1444 343088.000
1936 1937 1 0.1080 284512.000
1936 1938 1 0.1080 284512.000
1936 2001 1 0.152900 224262.400000
1939 1940 1 0.1229 476976.000
1939 1941 1 0.1327 179075.200
1941 1942 1 0.1410 267776.000
1942 1943 1 0.1090 284512.000
1942 1944 1 0.1090 284512.000
1942 1945 1 0.1529 224262.400
1945 1946 1 0.1090 284512.000
1945 1947 1 0.1090 284512.000
1945 1948 1 0.1529 224262.400
1948 1949 1 0.1090 284512.000
1948 1950 1 0.1090 284512.000
1948 1951 1 0.1529 224262.400
1951 1952 1 0.1090 284512.000
1951 1953 1 0.1090 284512.000
1951 1954 1 0.1529 224262.400
1954 1955 1 0.1090 284512.000
1954 1956 1 0.1090 284512.000
1954 1957 1 0.1529 224262.400
1957 1958 1 0.1090 284512.000
1957 1959 1 0.1090 284512.000
1957 1960 1 0.1529 224262.400
1960 1961 1 0.1090 284512.000
1960 1962 1 0.1090 284512.000
1960 1963 1 0.1529 224262.400
1963 1964 1 0.1090 284512.000
1963 1965 1 0.1090 284512.000
1963 1966 1 0.1529 224262.400
1966 1967 1 0.1090 284512.000
1966 1968 1 0.1090 284512.000
1966 1969 1 0.1529 224262.400
1969 1970 1 0.1090 284512.000
1969 1971 1 0.1090 284512.000
1969 1972 1 0.1529 224262.400
1972 1973 1 0.1090 284512.000
1972 1974 1 0.1090 284512.000
1972 1975 1 0.1529 224262.400
1975 1976 1 0.1090 284512.000
1975 1977 1 0.1090 284512.000
1975 1978 1 0.1529 224262.400
1978 1979 1 0.1090 284512.000
1978 1980 1 0.1090 284512.000
1978 1981 1 0.1529 224262.400
1981 1982 1 0.1090 284512.000
1981 1983 1 0.1090 284512.000
1981 1984 1 0.1529 224262.400
1984 1985 1 0.1090 284512.000
1984 1986 1 0.1090 284512.000
1984 1987 1 0.1529 224262.400
1987 1988 1 0.1090 284512.000
1987 1989 1 0.1090 284512.000
1987 1990 1 0.1529 224262.400
1990 1991 1 0.1090 284512.000
1990 1992 1 0.1090 284512.000
1990 1993 1 0.1529 224262.400
1993 1994 1 0.1090 284512.000
1993 1995 1 0.1090 284512.000
1993 1996 1 0.1090 284512.000
1997 1998 1 0.1090 284512.000
1998 1999 1 0.1090 284512.000
1998 2000 1 0.1090 284512.000
1998 2001 1 0.1510 265265.600
2001 2002 1 0.1340 459403.200
2001 2005 1 0.1444 343088.000
2002 2003 1 0.1080 284512.000
2002 2004 1 0.1080 284512.000
2002 2049 1 0.152900 224262.400000
2005 2006 1 0.1229 476976.000
2005 2007 1 0.1327 179075.200
2007 2008 1 0.1410 267776.000
2008 2009 1 0.1090 284512.000
2008 2010 1 0.1090 284512.000
2008 2011 1 0.1529 224262.400
2011 2012 1 0.1090 284512.000
2011 2013 1 0.1090 284512.000
2011 2014 1 0.1529 224262.400
2014 2015 1 0.1090 284512.000
2014 2016 1 0.1090 284512.000
2014 2017 1 0.1529 224262.400
2017 2018 1 0.1090 284512.000
2017 2019 1 0.1090 284512.000
2017 2020 1 0.1529 224262.400
2020 2021 1 0.1090 284512.000
2020 2022 1 0.1090 284512.000
2020 2023 1 0.1529 224262.400
2023 2024 1 0.1090 284512.000
2023 2025 1 0.1090 284512.000
2023 2026 1 0.1529 224262.400
2026 2027 1 0.1090 284512.000
2026 2028 1 0.1090 284512.000
2026 2029 1 0.1529 224262.400
2029 2030 1 0.1090 284512.000
2029 2031 1 0.1090 284512.000
2029 2032 1 0.1529 224262.400
2032 2033 1 0.1090 284512.000
2032 2034 1 0.1090 284512.000
2032 2035 1 0.1529 224262.400
2035 2036 1 0.1090 284512.000
2035 2037 1 0.1090 284512.000
2035 2038 1 0.1529 224262.400
2038 2039 1 0.1090 284512.000
2038 2040 1 0.1090 284512.000
2038 2041 1 0.1529 224262.400
2041 2042 1 0.1090 284512.000
2041 2043 1 0.1090 284512.000
2041 2044 1 0.1090 284512.000
2045 2046 1 0.1090 284512.000
2046 2047 1 0.1090 284512.000
2046 2048 1 0.1090 284512.000
2046 2049 1 0.1510 265265.600
2049 2050 1 0.1340 459403.200
2049 2053 1 0.1444 343088.000
2050 2051 1 0.1080 284512.000
2050 2052 1 0.1080 284512.000
2050 2115 1 0.152900 224262.400000
2053 2054 1 0.1229 476976.000
2053 2055 1 0.1327 179075.200
2055 2056 1 0.1410 267776.000
2056 2057 1 0.1090 284512.000
2056 2058 1 0.1090 284512.000
2056 2059 1 0.1529 224262.400
2059 2060 1 0.1090 284512.000
2059 2061 1 0.1090 284512.000
2059 2062 1 0.1529 224262.400
2062 2063 1 0.1090 284512.000
2062 2064 1 0.1090 284512.000
2062 2065 1 0.1529 224262.400
2065 2066 1 0.1090 284512.000
2065 2067 1 0.1090 284512.000
2065 2068 1 0.1529 224262.400
2068 2069 1 0.1090 284512.000
2068 2070 1 0.1090 284512.000
2068 2071 1 0.1529 224262.400
2071 2072 1 0.1090 284512.000
2071 2073 1 0.1090 284512.000
2071 2074 1 0.1529 224262.400
2074 2075 1 0.1090 284512.000
2074 2076 1 0.1090 284512.000
2074 2077 1 0.1529 224262.400
2077 2078 1 0.1090 284512.000
2077 2079 1 0.1090 284512.000
2077 2080 1 0.1529 224262.400
2080 2081 1 0.1090 284512.000
2080 2082 1 0.1090 284512.000
2080 2083 1 0.1529 224262.400
2083 2084 1 0.1090 284512.000
2083 2085 1 0.1090 284512.000
2083 2086 1 0.1529 224262.400
2086 2087 1 0.1090 284512.000
2086 2088 1 0.1090 284512.000
2086 2089 1 0.1529 224262.400
2089 2090 1 0.1090 284512.000
2089 2091 1 0.1090 284512.000
2089 2092 1 0.1529 224262.400
2092 2093 1 0.1090 284512.000
2092 2094 1 0.1090 284512.000
2092 2095 1 0.1529 224262.400
2095 2096 1 0.1090 284512.000
2095 2097 1 0.1090 284512.000
2095 2098 1 0.1529 224262.400
2098 2099 1 0.1090 284512.000
2098 2100 1 0.1090 284512.000
2098 2101 1 0.1529 224262.400
2101 2102 1 0.1090 284512.000
2101 2103 1 0.1090 284512.000
2101 2104 1 0.1529 224262.400
2104 2105 1 0.1090 284512.000
2104 2106 1 0.1090 284512.000
2104 2107 1 0.1529 224262.400
2107 2108 1 0.1090 284512.000
2107 2109 1 0.1090 284512.000
2107 2110 1 0.1090 284512.000
2111 2112 1 0.1090 284512.000
2112 2113 1 0.1090 284512.000
2112 2114 1 0.1090 284512.000
2112 2115 1 0.1510 265265.600
2115 2116 1 0.1340 459403.200
2115 2119 1 0.1444 343088.000
2116 2117 1 0.1080 284512.000
2116 2118 1 0.1080 284512.000
2116 2181 1 0.152900 224262.400000
2119 2120 1 0.1229 476976.000
2119 2121 1 0.1327 179075.200
2121 2122 1 0.1410 267776.000
2122 2123 1 0.1090 284512.000
2122 2124 1 0.1090 284512.000
2122 2125 1 0.1529 224262.400
2125 2126 1 0.1090 284512.000
2125 2127 1 0.1090 284512.000
2125 2128 1 0.1529 224262.400
2128 2129 1 0.1090 284512.000
2128 2130 1 0.1090 284512.000
2128 2131 1 0.1529 224262.400
2131 2132 1 0.1090 284512.000
2131 2133 1 0.1090 284512.000
2131 2134 1 0.1529 224262.400
2134 2135 1 0.1090 284512.000
2134 2136 1 0.1090 284512.000
2134 2137 1 0.1529 224262.400
2137 2138 1 0.1090 284512.000
2137 2139 1 0.1090 284512.000
2137 2140 1 0.1529 224262.400
2140 2141 1 0.1090 284512.000
2140 2142 1 0.1090 284512.000
2140 2143 1 0.1529 224262.400
2143 2144 1 0.1090 284512.000
2143 2145 1 0.1090 284512.000
2143 2146 1 0.1529 224262.400
2146 2147 1 0.1090 284512.000
2146 2148 1 0.1090 284512.000
2146 2149 1 0.1529 224262.400
2149 2150 1 0.1090 284512.000
2149 2151 1 0.1090 284512.000
2149 2152 1 0.1529 224262.400
2152 2153 1 0.1090 284512.000
2152 2154 1 0.1090 284512.000
2152 2155 1 0.1529 224262.400
2155 2156 1 0.1090 284512.000
2155 2157 1 0.1090 284512.000
2155 2158 1 0.1529 224262.400
2158 2159 1 0.1090 284512.000
2158 2160 1 0.1090 284512.000
2158 2161 1 0.1529 224262.400
2161 2162 1 0.1090 284512.000
2161 2163 1 0.1090 284512.000
2161 2164 1 0.1529 224262.400
2164 2165 1 0.1090 284512.000
2164 2166 1 0.1090 284512.000
2164 2167 1 0.1529 224262.400
2167 2168 1 0.1090 284512.000
2167 2169 1 0.1090 284512.000
2167 2170 1 0.1529 224262.400
2170 2171 1 0.1090 284512.000
2170 2172 1 0.1090 284512.000
2170 2173 1 0.1529 224262.400
2173 2174 1 0.1090 284512.000
2173 2175 1 0.1090 284512.000
2173 2176 1 0.1090 284512.000
2177 2178 1 0.1090 284512.000
2178 2179 1 0.1090 284512.000
2178 2180 1 0.1090 284512.000
2178 2181 1 0.1510 265265.600
2181 2182 1 0.1340 459403.200
2181 2185 1 0.1444 343088.000
2182 2183 1 0.1080 284512.000
2182 2184 1 0.1080 284512.000
2182 2217 1 0.152900 224262.400000
2185 2186 1 0.1229 476976.000
2185 2187 1 0.1327 179075.200
2187 2188 1 0.1410 267776.000
2188 2189 1 0.1090 284512.000
2188 2190 1 0.1090 284512.000
2188 2191 1 0.1529 224262.400
2191 2192 1 0.1090 284512.000
2191 2193 1 0.1529 224262.400
2191 2200 1 0.1529 224262.400
2193 2194 1 0.1090 284512.000
2193 2195 1 0.1090 284512.000
2193 2196 1 0.1529 224262.400
2196 2197 1 0.1090 284512.000
2196 2198 1 0.1090 284512.000
2196 2199 1 0.1090 284512.000
2200 2201 1 0.1090 284512.000
2200 2202 1 0.1090 284512.000
2200 2203 1 0.1529 224262.400
2203 2204 1 0.1090 284512.000
2203 2205 1 0.1090 284512.000
2203 2206 1 0.1529 224262.400
2206 2207 1 0.1090 284512.000
2206 2208 1 0.1090 284512.000
2206 2209 1 0.1529 224262.400
2209 2210 1 0.1090 284512.000
2209 2211 1 0.1090 284512.000
2209 2212 1 0.1090 284512.000
2213 2214 1 0.1090 284512.000
2214 2215 1 0.1090 284512.000
2214 2216 1 0.1090 284512.000
2214 2217 1 0.1510 265265.600
2217 2218 1 0.1340 459403.200
2217 2221 1 0.1444 343088.000
2218 2219 1 0.1080 284512.000
2218 2220 1 0.1080 284512.000
2218 2253 1 0.152900 224262.400000
2221 2222 1 0.1229 476976.000
2221 2223 1 0.1327 179075.200
2223 2224 1 0.1410 267776.000
2224 2225 1 0.1090 284512.000
2224 2226 1 0.1090 284512.000
2224 2227 1 0.1529 224262.400
2227 2228 1 0.1090 284512.000
2227 2229 1 0.1529 224262.400
2227 2236 1 0.1529 224262.400
2229 2230 1 0.1090 284512.000
2229 2231 1 0.1090 284512.000
2229 2232 1 0.1529 224262.400
2232 2233 1 0.1090 284512.000
2232 2234 1 0.1090 284512.000
2232 2235 1 0.1090 284512.000
2236 2237 1 0.1090 284512.000
2236 2238 1 0.1090 284512.000
2236 2239 1 0.1529 224262.400
2239 2240 1 0.1090 284512.000
2239 2241 1 0.1090 284512.000
2239 2242 1 0.1529 224262.400
2242 2243 1 0.1090 284512.000
2242 2244 1 0.1090 284512.000
2242 2245 1 0.1529 224262.400
2245 2246 1 0.1090 284512.000
2245 2247 1 0.1090 284512.000
2245 2248 1 0.1090 284512.000
2249 2250 1 0.1090 284512.000
2250 2251 1 0.1090 284512.000
2250 2252 1 0.1090 284512.000
2250 2253 1 0.1510 265265.600
2253 2254 1 0.1340 459403.200
2253 2257 1 0.1444 343088.000
2254 2255 1 0.1080 284512.000
2254 2256 1 0.1080 284512.000
2254 2289 1 0.152900 224262.400000
2257 2258 1 0.1229 476976.000
2257 2259 1 0.1327 179075.200
2259 2260 1 0.1410 267776.000
2260 2261 1 0.1090 284512.000
2260 2262 1 0.1090 284512.000
2260 2263 1 0.1529 224262.400
2263 2264 1 0.1090 284512.000
2263 2265 1 0.1529 224262.400
2263 2272 1 0.1529 224262.400
2265 2266 1 0.1090 284512.000
2265 2267 1 0.1090 284512.000
2265 2268 1 0.1529 224262.400
2268 2269 1 0.1090 284512.000
2268 2270 1 0.1090 284512.000
2268 2271 1 0.1090 284512.000
2272 2273 1 0.1090 284512.000
2272 2274 1 0.1090 284512.000
2272 2275 1 0.1529 224262.400
2275 2276 1 0.1090 284512.000
2275 2277 1 0.1090 284512.000
2275 2278 1 0.1529 224262.400
2278 2279 1 0.1090 284512.000
2278 2280 1 0.1090 284512.000
2278 2281 1 0.1529 224262.400
2281 2282 1 0.1090 284512.000
2281 2283 1 0.1090 284512.000
2281 2284 1 0.1090 284512.000
2285 2286 1 0.1090 284512.000
2286 2287 1 0.1090 284512.000
2286 2288 1 0.1090 284512.000
2286 2289 1 0.1510 265265.600
2289 2290 1 0.1340 459403.200
2289 2293 1 0.1444 343088.000
2290 2291 1 0.1080 284512.000
2290 2292 1 0.1080 284512.000
2290 2337 1 0.152900 224262.400000
2293 2294 1 0.1229 476976.000
2293 2295 1 0.1327 179075.200
2295 2296 1 0.1410 267776.000
2296 2297 1 0.1090 284512.000
2296 2298 1 0.1090 284512.000
2296 2299 1 0.1529 224262.400
2299 2300 1 0.1090 284512.000
2299 2301 1 0.1090 284512.000
2299 2302 1 0.1529 224262.400
2302 2303 1 0.1090 284512.000
2302 2304 1 0.1090 284512.000
2302 2305 1 0.1529 224262.400
2305 2306 1 0.1090 284512.000
2305 2307 1 0.1090 284512.000
2305 2308 1 0.1529 224262.400
2308 2309 1 0.1090 284512.000
2308 2310 1 0.1090 284512.000
2308 2311 1 0.1529 224262.400
2311 2312 1 0.1090 284512.000
2311 2313 1 0.1090 284512.000
2311 2314 1 0.1529 224262.400
2314 2315 1 0.1090 284512.000
2314 2316 1 0.1090 284512.000
2314 2317 1 0.1529 224262.400
2317 2318 1 0.1090 284512.000
2317 2319 1 0.1090 284512.000
2317 2320 1 0.1529 224262.400
2320 2321 1 0.1090 284512.000
2320 2322 1 0.1090 284512.000
2320 2323 1 0.1529 224262.400
2323 2324 1 0.1090 284512.000
2323 2325 1 0.1090 284512.000
2323 2326 1 0.1529 224262.400
2326 2327 1 0.1090 284512.000
2326 2328 1 0.1090 284512.000
2326 2329 1 0.1529 224262.400
2329 2330 1 0.1090 284512.000
2329 2331 1 0.1090 284512.000
2329 2332 1 0.1090 284512.000
2333 2334 1 0.1090 284512.000
2334 2335 1 0.1090 284512.000
2334 2336 1 0.1090 284512.000
2334 2337 1 0.1510 265265.600
2337 2338 1 0.1340 459403.200
2337 2341 1 0.1444 343088.000
2338 2339 1 0.1080 284512.000
2338 2340 1 0.1080 284512.000
2338 2373 1 0.152900 224262.400000
2341 2342 1 0.1229 476976.000
2341 2343 1 0.1327 179075.200
2343 2344 1 0.1410 267776.000
2344 2345 1 0.1090 284512.000
2344 2346 1 0.1090 284512.000
2344 2347 1 0.1529 224262.400
2347 2348 1 0.1090 284512.000
2347 2349 1 0.1529 224262.400
2347 2356 1 0.1529 224262.400
2349 2350 1 0.1090 284512.000
2349 2351 1 0.1090 284512.000
2349 2352 1 0.1529 224262.400
2352 2353 1 0.1090 284512.000
2352 2354 1 0.1090 284512.000
2352 2355 1 0.1090 284512.000
2356 2357 1 0.1090 284512.000
2356 2358 1 0.1090 284512.000
2356 2359 1 0.1529 224262.400
2359 2360 1 0.1090 284512.000
2359 2361 1 0.1090 284512.000
2359 2362 1 0.1529 224262.400
2362 2363 1 0.1090 284512.000
2362 2364 1 0.1090 284512.000
2362 2365 1 0.1529 224262.400
2365 2366 1 0.1090 284512.000
2365 2367 1 0.1090 284512.000
2365 2368 1 0.1090 284512.000
2369 2370 1 0.1090 284512.000
2370 2371 1 0.1090 284512.000
2370 2372 1 0.1090 284512.000
2370 2373 1 0.1510 265265.600
2373 2374 1 0.1340 459403.200
2373 2377 1 0.1444 343088.000
2374 2375 1 0.1080 284512.000
2374 2376 1 0.1080 284512.000
2374 2409 1 0.152900 224262.400000
2377 2378 1 0.1229 476976.000
2377 2379 1 0.1327 179075.200
2379 2380 1 0.1410 267776.000
2380 2381 1 0.1090 284512.000
2380 2382 1 0.1090 284512.000
2380 2383 1 0.1529 224262.400
2383 2384 1 0.1090 284512.000
2383 2385 1 0.1529 224262.400
2383 2392 1 0.1529 224262.400
2385 2386 1 0.1090 284512.000
2385 2387 1 0.1090 284512.000
2385 2388 1 0.1529 224262.400
2388 2389 1 0.1090 284512.000
2388 2390 1 0.1090 284512.000
2388 2391 1 0.1090 284512.000
2392 2393 1 0.1090 284512.000
2392 2394 1 0.1090 284512.000
2392 2395 1 0.1529 224262.400
2395 2396 1 0.1090 284512.000
2395 2397 1 0.1090 284512.000
2395 2398 1 0.1529 224262.400
2398 2399 1 0.1090 284512.000
2398 2400 1 0.1090 284512.000
2398 2401 1 0.1529 224262.400
2401 2402 1 0.1090 284512.000
2401 2403 1 0.1090 284512.000
2401 2404 1 0.1090 284512.000
2405 2406 1 0.1090 284512.000
2406 2407 1 0.1090 284512.000
2406 2408 1 0.1090 284512.000
2406 2409 1 0.1510 265265.600
2409 2410 1 0.1340 459403.200
2409 2413 1 0.1444 343088.000
2410 2411 1 0.1080 284512.000
2410 2412 1 0.1080 284512.000
2410 2475 1 0.152900 224262.400000
2413 2414 1 0.1229 476976.000
2413 2415 1 0.1327 179075.200
2415 2416 1 0.1410 267776.000
2416 2417 1 0.1090 284512.000
2416 2418 1 0.1090 284512.000
2416 2419 1 0.1529 224262.400
2419 2420 1 0.1090 284512.000
2419 2421 1 0.1090 284512.000
2419 2422 1 0.1529 224262.400
2422 2423 1 0.1090 284512.000
2422 2424 1 0.1090 284512.000
2422 2425 1 0.1529 224262.400
2425 2426 1 0.1090 284512.000
2425 2427 1 0.1090 284512.000
2425 2428 1 0.1529 224262.400
2428 2429 1 0.1090 284512.000
2428 2430 1 0.1090 284512.000
2428 2431 1 0.1529 224262.400
2431 2432 1 0.1090 284512.000
2431 2433 1 0.1090 284512.000
2431 2434 1 0.1529 224262.400
2434 2435 1 0.1090 284512.000
2434 2436 1 0.1090 284512.000
2434 2437 1 0.1529 224262.400
2437 2438 1 0.1090 284512.000
2437 2439 1 0.1090 284512.000
2437 2440 1 0.1529 224262.400
2440 2441 1 0.1090 284512.000
2440 2442 1 0.1090 284512.000
2440 2443 1 0.1529 224262.400
2443 2444 1 0.1090 284512.000
2443 2445 1 0.1090 284512.000
2443 2446 1 0.1529 224262.400
2446 2447 1 0.1090 284512.000
2446 2448 1 0.1090 284512.000
2446 2449 1 0.1529 224262.400
2449 2450 1 0.1090 284512.000
2449 2451 1 0.1090 284512.000
2449 2452 1 0.1529 224262.400
2452 2453 1 0.1090 284512.000
2452 2454 1 0.1090 284512.000
2452 2455 1 0.1529 224262.400
2455 2456 1 0.1090 284512.000
2455 2457 1 0.1090 284512.000
2455 2458 1 0.1529 224262.400
2458 2459 1 0.1090 284512.000
2458 2460 1 0.1090 284512.000
2458 2461 1 0.1529 224262.400
2461 2462 1 0.1090 284512.000
2461 2463 1 0.1090 284512.000
2461 2464 1 0.1529 224262.400
2464 2465 1 0.1090 284512.000
2464 2466 1 0.1090 284512.000
2464 2467 1 0.1529 224262.400
2467 2468 1 0.1090 284512.000
2467 2469 1 0.1090 284512.000
2467 2470 1 0.1090 284512.000
2471 2472 1 0.1090 284512.000
2472 2473 1 0.1090 284512.000
2472 2474 1 0.1090 284512.000
2472 2475 1 0.1510 265265.600
2475 2476 1 0.1340 459403.200
2475 2479 1 0.1444 343088.000
2476 2477 1 0.1080 284512.000
2476 2478 1 0.1080 284512.000
2476 2511 1 0.152900 224262.400000
2479 2480 1 0.1229 476976.000
2479 2481 1 0.1327 179075.200
2481 2482 1 0.1410 267776.000
2482 2483 1 0.1090 284512.000
2482 2484 1 0.1090 284512.000
2482 2485 1 0.1529 224262.400
2485 2486 1 0.1090 284512.000
2485 2487 1 0.1529 224262.400
2485 2494 1 0.1529 224262.400
2487 2488 1 0.1090 284512.000
2487 2489 1 0.1090 284512.000
2487 2490 1 0.1529 224262.400
2490 2491 1 0.1090 284512.000
2490 2492 1 0.1090 284512.000
2490 2493 1 0.1090 284512.000
2494 2495 1 0.1090 284512.000
2494 2496 1 0.1090 284512.000
2494 2497 1 0.1529 224262.400
2497 2498 1 0.1090 284512.000
2497 2499 1 0.1090 284512.000
2497 2500 1 0.1529 224262.400
2500 2501 1 0.1090 284512.000
2500 2502 1 0.1090 284512.000
2500 2503 1 0.1529 224262.400
2503 2504 1 0.1090 284512.000
2503 2505 1 0.1090 284512.000
2503 2506 1 0.1090 284512.000
2507 2508 1 0.1090 284512.000
2508 2509 1 0.1090 284512.000
2508 2510 1 0.1090 284512.000
2508 2511 1 0.1510 265265.600
2511 2512 1 0.1340 459403.200
2511 2515 1 0.1444 343088.000
2512 2513 1 0.1080 284512.000
2512 2514 1 0.1080 284512.000
2512 2577 1 0.152900 224262.400000
2515 2516 1 0.1229 476976.000
2515 2517 1 0.1327 179075.200
2517 2518 1 0.1410 267776.000
2518 2519 1 0.1090 284512.000
2518 2520 1 0.1090 284512.000
2518 2521 1 0.1529 224262.400
2521 2522 1 0.1090 284512.000
2521 2523 1 0.1090 284512.000
2521 2524 1 0.1529 224262.400
2524 2525 1 0.1090 284512.000
2524 2526 1 0.1090 284512.000
2524 2527 1 0.1529 224262.400
2527 2528 1 0.1090 284512.000
2527 2529 1 0.1090 284512.000
2527 2530 1 0.1529 224262.400
2530 2531 1 0.1090 284512.000
2530 2532 1 0.1090 284512.000
2530 2533 1 0.1529 224262.400
2533 2534 1 0.1090 284512.000
2533 2535 1 0.1090 284512.000
2533 2536 1 0.1529 224262.400
2536 2537 1 0.1090 284512.000
2536 2538 1 0.1090 284512.000
2536 2539 1 0.1529 224262.400
2539 2540 1 0.1090 284512.000
2539 2541 1 0.1090 284512.000
2539 2542 1 0.1529 224262.400
2542 2543 1 0.1090 284512.000
2542 2544 1 0.1090 284512.000
2542 2545 1 0.1529 224262.400
2545 2546 1 0.1090 284512.000
2545 2547 1 0.1090 284512.000
2545 2548 1 0.1529 224262.400
2548 2549 1 0.1090 284512.000
2548 2550 1 0.1090 284512.000
2548 2551 1 0.1529 224262.400
2551 2552 1 0.1090 284512.000
2551 2553 1 0.1090 284512.000
2551 2554 1 0.1529 224262.400
2554 2555 1 0.1090 284512.000
2554 2556 1 0.1090 284512.000
2554 2557 1 0.1529 224262.400
2557 2558 1 0.1090 284512.000
2557 2559 1 0.1090 284512.000
2557 2560 1 0.1529 224262.400
2560 2561 1 0.1090 284512.000
2560 2562 1 0.1090 284512.000
2560 2563 1 0.1529 224262.400
2563 2564 1 0.1090 284512.000
2563 2565 1 0.1090 284512.000
2563 2566 1 0.1529 224262.400
2566 2567 1 0.1090 284512.000
2566 2568 1 0.1090 284512.000
2566 2569 1 0.1529 224262.400
2569 2570 1 0.1090 284512.000
2569 2571 1 0.1090 284512.000
2569 2572 1 0.1090 284512.000
2573 2574 1 0.1090 284512.000
2574 2575 1 0.1090 284512.000
2574 2576 1 0.1090 284512.000
2574 2577 1 0.1510 265265.600
2577 2578 1 0.1340 459403.200
2577 2581 1 0.1444 343088.000
2578 2579 1 0.1080 284512.000
2578 2580 1 0.1080 284512.000
2578 2613 1 0.152900 224262.400000
2581 2582 1 0.1229 476976.000
2581 2583 1 0.1327 179075.200
2583 2584 1 0.1410 267776.000
2584 2585 1 0.1090 284512.000
2584 2586 1 0.1090 284512.000
2584 2587 1 0.1529 224262.400
2587 2588 1 0.1090 284512.000
2587 2589 1 0.1529 224262.400
2587 2596 1 0.1529 224262.400
2589 2590 1 0.1090 284512.000
2589 2591 1 0.1090 284512.000
2589 2592 1 0.1529 224262.400
2592 2593 1 0.1090 284512.000
2592 2594 1 0.1090 284512.000
2592 2595 1 0.1090 284512.000
2596 2597 1 0.1090 284512.000
2596 2598 1 0.1090 284512.000
2596 2599 1 0.1529 224262.400
2599 2600 1 0.1090 284512.000
2599 2601 1 0.1090 284512.000
2599 2602 1 0.1529 224262.400
2602 2603 1 0.1090 284512.000
2602 2604 1 0.1090 284512.000
2602 2605 1 0.1529 224262.400
2605 2606 1 0.1090 284512.000
2605 2607 1 0.1090 284512.000
2605 2608 1 0.1090 284512.000
2609 2610 1 0.1090 284512.000
2610 2611 1 0.1090 284512.000
2610 2612 1 0.1090 284512.000
2610 2613 1 0.1510 265265.600
2613 2614 1 0.1340 459403.200
2613 2617 1 0.1444 343088.000
2614 2615 1 0.1080 284512.000
2614 2616 1 0.1080 284512.000
2614 2679 1 0.152900 224262.400000
2617 2618 1 0.1229 476976.000
2617 2619 1 0.1327 179075.200
2619 2620 1 0.1410 267776.000
2620 2621 1 0.1090 284512.000
2620 2622 1 0.1090 284512.000
2620 2623 1 0.1529 224262.400
2623 2624 1 0.1090 284512.000
2623 2625 1 0.1090 284512.000
2623 2626 1 0.1529 224262.400
2626 2627 1 0.1090 284512.000
2626 2628 1 0.1090 284512.000
2626 2629 1 0.1529 224262.400
2629 2630 1 0.1090 284512.000
2629 2631 1 0.1090 284512.000
2629 2632 1 0.1529 224262.400
2632 2633 1 0.1090 284512.000
2632 2634 1 0.1090 284512.000
2632 2635 1 0.1529 224262.400
2635 2636 1 0.1090 284512.000
2635 2637 1 0.1090 284512.000
2635 2638 1 0.1529 224262.400
2638 2639 1 0.1090 284512.000
2638 2640 1 0.1090 284512.000
2638 2641 1 0.1529 224262.400
2641 2642 1 0.1090 284512.000
2641 2643 1 0.1090 284512.000
2641 2644 1 0.1529 224262.400
2644 2645 1 0.1090 284512.000
2644 2646 1 0.1090 284512.000
2644 2647 1 0.1529 224262.400
2647 2648 1 0.1090 284512.000
2647 2649 1 0.1090 284512.000
2647 2650 1 0.1529 224262.400
2650 2651 1 0.1090 284512.000
2650 2652 1 0.1090 284512.000
2650 2653 1 0.1529 224262.400
2653 2654 1 0.1090 284512.000
2653 2655 1 0.1090 284512.000
2653 2656 1 0.1529 224262.400
2656 2657 1 0.1090 284512.000
2656 2658 1 0.1090 284512.000
2656 2659 1 0.1529 224262.400
2659 2660 1 0.1090 284512.000
2659 2661 1 0.1090 284512.000
2659 2662 1 0.1529 224262.400
2662 2663 1 0.1090 284512.000
2662 2664 1 0.1090 284512.000
2662 2665 1 0.1529 224262.400
2665 2666 1 0.1090 284512.000
2665 2667 1 0.1090 284512.000
2665 2668 1 0.1529 224262.400
2668 2669 1 0.1090 284512.000
2668 2670 1 0.1090 284512.000
2668 2671 1 0.1529 224262.400
2671 2672 1 0.1090 284512.000
2671 2673 1 0.1090 284512.000
2671 2674 1 0.1090 284512.000
2675 2676 1 0.1090 284512.000
2676 2677 1 0.1090 284512.000
2676 2678 1 0.1090 284512.000
2676 2679 1 0.1510 265265.600
2679 2680 1 0.1340 459403.200
2679 2683 1 0.1444 343088.000
2680 2681 1 0.1080 284512.000
2680 2682 1 0.1080 284512.000
2680 2715 1 0.152900 224262.400000
2683 2684 1 0.1229 476976.000
2683 2685 1 0.1327 179075.200
2685 2686 1 0.1410 267776.000
2686 2687 1 0.1090 284512.000
2686 2688 1 0.1090 284512.000
2686 2689 1 0.1529 224262.400
2689 2690 1 0.1090 284512.000
2689 2691 1 0.1529 224262.400
2689 2698 1 0.1529 224262.400
2691 2692 1 0.1090 284512.000
2691 2693 1 0.1090 284512.000
2691 2694 1 0.1529 224262.400
2694 2695 1 0.1090 284512.000
2694 2696 1 0.1090 284512.000
2694 2697 1 0.1090 284512.000
2698 2699 1 0.1090 284512.000
2698 2700 1 0.1090 284512.000
2698 2701 1 0.1529 224262.400
2701 2702 1 0.1090 284512.000
2701 2703 1 0.1090 284512.000
2701 2704 1 0.1529 224262.400
2704 2705 1 0.1090 284512.000
2704 2706 1 0.1090 284512.000
2704 2707 1 0.1529 224262.400
2707 2708 1 0.1090 284512.000
2707 2709 1 0.1090 284512.000
2707 2710 1 0.1090 284512.000
2711 2712 1 0.1090 284512.000
2712 2713 1 0.1090 284512.000
2712 2714 1 0.1090 284512.000
2712 2715 1 0.1510 265265.600
2715 2716 1 0.1340 459403.200
2715 2719 1 0.1444 343088.000
2716 2717 1 0.1080 284512.000
2716 2718 1 0.1080 284512.000
2716 2763 1 0.152900 224262.400000
2719 2720 1 0.1229 476976.000
2719 2721 1 0.1327 179075.200
2721 2722 1 0.1410 267776.000
2722 2723 1 0.1090 284512.000
2722 2724 1 0.1090 284512.000
2722 2725 1 0.1529 224262.400
2725 2726 1 0.1090 284512.000
2725 2727 1 0.1090 284512.000
2725 2728 1 0.1529 224262.400
2728 2729 1 0.1090 284512.000
2728 2730 1 0.1090 284512.000
2728 2731 1 0.1529 224262.400
2731 2732 1 0.1090 284512.000
2731 2733 1 0.1090 284512.000
2731 2734 1 0.1529 224262.400
2734 2735 1 0.1090 284512.000
2734 2736 1 0.1090 284512.000
2734 2737 1 0.1529 224262.400
2737 2738 1 0.1090 284512.000
2737 2739 1 0.1090 284512.000
2737 2740 1 0.1529 224262.400
2740 2741 1 0.1090 284512.000
2740 2742 1 0.1090 284512.000
2740 2743 1 0.1529 224262.400
2743 2744 1 0.1090 284512.000
2743 2745 1 0.1090 284512.000
2743 2746 1 0.1529 224262.400
2746 2747 1 0.1090 284512.000
2746 2748 1 0.1090 284512.000
2746 2749 1 0.1529 224262.400
2749 2750 1 0.1090 284512.000
2749 2751 1 0.1090 284512.000
2749 2752 1 0.1529 224262.400
2752 2753 1 0.1090 284512.000
2752 2754 1 0.1090 284512.000
2752 2755 1 0.1529 224262.400
2755 2756 1 0.1090 284512.000
2755 2757 1 0.1090 284512.000
2755 2758 1 0.1090 284512.000
2759 2760 1 0.1090 284512.000
2760 2761 1 0.1090 284512.000
2760 2762 1 0.1090 284512.000
2760 2763 1 0.1510 265265.600
2763 2764 1 0.1340 459403.200
2763 2767 1 0.1444 343088.000
2764 2765 1 0.1080 284512.000
2764 2766 1 0.1080 284512.000
2764 2799 1 0.152900 224262.400000
2767 2768 1 0.1229 476976.000
2767 2769 1 0.1327 179075.200
2769 2770 1 0.1410 267776.000
2770 2771 1 0.1090 284512.000
2770 2772 1 0.1090 284512.000
2770 2773 1 0.1529 224262.400
2773 2774 1 0.1090 284512.000
2773 2775 1 0.1529 224262.400
2773 2782 1 0.1529 224262.400
2775 2776 1 0.1090 284512.000
2775 2777 1 0.1090 284512.000
2775 2778 1 0.1529 224262.400
2778 2779 1 0.1090 284512.000
2778 2780 1 0.1090 284512.000
2778 2781 1 0.1090 284512.000
2782 2783 1 0.1090 284512.000
2782 2784 1 0.1090 284512.000
2782 2785 1 0.1529 224262.400
2785 2786 1 0.1090 284512.000
2785 2787 1 0.1090 284512.000
2785 2788 1 0.1529 224262.400
2788 2789 1 0.1090 284512.000
2788 2790 1 0.1090 284512.000
2788 2791 1 0.1529 224262.400
2791 2792 1 0.1090 284512.000
2791 2793 1 0.1090 284512.000
2791 2794 1 0.1090 284512.000
2795 2796 1 0.1090 284512.000
2796 2797 1 0.1090 284512.000
2796 2798 1 0.1090 284512.000
2796 2799 1 0.1510 265265.600
2799 2800 1 0.1340 459403.200
2799 2803 1 0.1444 343088.000
2800 2801 1 0.1080 284512.000
2800 2802 1 0.1080 284512.000
2800 2835 1 0.152900 224262.400000
2803 2804 1 0.1229 476976.000
2803 2805 1 0.1327 179075.200
2805 2806 1 0.1410 267776.000
2806 2807 1 0.1090 284512.000
2806 2808 1 0.1090 284512.000
2806 2809 1 0.1529 224262.400
2809 2810 1 0.1090 284512.000
2809 2811 1 0.1529 224262.400
2809 2818 1 0.1529 224262.400
2811 2812 1 0.1090 284512.000
2811 2813 1 0.1090 284512.000
2811 2814 1 0.1529 224262.400
2814 2815 1 0.1090 284512.000
2814 2816 1 0.1090 284512.000
2814 2817 1 0.1090 284512.000
2818 2819 1 0.1090 284512.000
2818 2820 1 0.1090 284512.000
2818 2821 1 0.1529 224262.400
2821 2822 1 0.1090 284512.000
2821 2823 1 0.1090 284512.000
2821 2824 1 0.1529 224262.400
2824 2825 1 0.1090 284512.000
2824 2826 1 0.1090 284512.000
2824 2827 1 0.1529 224262.400
2827 2828 1 0.1090 284512.000
2827 2829 1 0.1090 284512.000
2827 2830 1 0.1090 284512.000
2831 2832 1 0.1090 284512.000
2832 2833 1 0.1090 284512.000
2832 2834 1 0.1090 284512.000
2832 2835 1 0.1510 265265.600
2835 2836 1 0.1340 459403.200
2835 2839 1 0.1444 343088.000
2836 2837 1 0.1080 284512.000
2836 2838 1 0.1080 284512.000
2836 2901 1 0.152900 224262.400000
2839 2840 1 0.1229 476976.000
2839 2841 1 0.1327 179075.200
2841 2842 1 0.1410 267776.000
2842 2843 1 0.1090 284512.000
2842 2844 1 0.1090 284512.000
2842 2845 1 0.1529 224262.400
2845 2846 1 0.1090 284512.000
2845 2847 1 0.1090 284512.000
2845 2848 1 0.1529 224262.400
2848 2849 1 0.1090 284512.000
2848 2850 1 0.1090 284512.000
2848 2851 1 0.1529 224262.400
2851 2852 1 0.1090 284512.000
2851 2853 1 0.1090 284512.000
2851 2854 1 0.1529 224262.400
2854 2855 1 0.1090 284512.000
2854 2856 1 0.1090 284512.000
2854 2857 1 0.1529 224262.400
2857 2858 1 0.1090 284512.000
2857 2859 1 0.1090 284512.000
2857 2860 1 0.1529 224262.400
2860 2861 1 0.1090 284512.000
2860 2862 1 0.1090 284512.000
2860 2863 1 0.1529 224262.400
2863 2864 1 0.1090 284512.000
2863 2865 1 0.1090 284512.000
2863 2866 1 0.1529 224262.400
2866 2867 1 0.1090 284512.000
2866 2868 1 0.1090 284512.000
2866 2869 1 0.1529 224262.400
2869 2870 1 0.1090 284512.000
2869 2871 1 0.1090 284512.000
2869 2872 1 0.1529 224262.400
2872 2873 1 0.1090 284512.000
2872 2874 1 0.1090 284512.000
2872 2875 1 0.1529 224262.400
2875 2876 1 0.1090 284512.000
2875 2877 1 0.1090 284512.000
2875 2878 1 0.1529 224262.400
2878 2879 1 0.1090 284512.000
2878 2880 1 0.1090 284512.000
2878 2881 1 0.1529 224262.400
2881 2882 1 0.1090 284512.000
2881 2883 1 0.1090 284512.000
2881 2884 1 0.1529 224262.400
2884 2885 1 0.1090 284512.000
2884 2886 1 0.1090 284512.000
2884 2887 1 0.1529 224262.400
2887 2888 1 0.1090 284512.000
2887 2889 1 0.1090 284512.000
2887 2890 1 0.1529 224262.400
2890 2891 1 0.1090 284512.000
2890 2892 1 0.1090 284512.000
2890 2893 1 0.1529 224262.400
2893 2894 1 0.1090 284512.000
2893 2895 1 0.1090 284512.000
2893 2896 1 0.1090 284512.000
2897 2898 1 0.1090 284512.000
2898 2899 1 0.1090 284512.000
2898 2900 1 0.1090 284512.000
2898 2901 1 0.1510 265265.600
2901 2902 1 0.1340 459403.200
2901 2905 1 0.1444 343088.000
2902 2903 1 0.1080 284512.000
2902 2904 1 0.1080 284512.000
2902 2937 1 0.152900 224262.400000
2905 2906 1 0.1229 476976.000
2905 2907 1 0.1327 179075.200
2907 2908 1 0.1410 267776.000
2908 2909 1 0.1090 284512.000
2908 2910 1 0.1090 284512.000
2908 2911 1 0.1529 224262.400
2911 2912 1 0.1090 284512.000
2911 2913 1 0.1529 224262.400
2911 2920 1 0.1529 224262.400
2913 2914 1 0.1090 284512.000
2913 2915 1 0.1090 284512.000
2913 2916 1 0.1529 224262.400
2916 2917 1 0.1090 284512.000
2916 2918 1 0.1090 284512.000
2916 2919 1 0.1090 284512.000
2920 2921 1 0.1090 284512.000
2920 2922 1 0.1090 284512.000
2920 2923 1 0.1529 224262.400
2923 2924 1 0.1090 284512.000
2923 2925 1 0.1090 284512.000
2923 2926 1 0.1529 224262.400
2926 2927 1 0.1090 284512.000
2926 2928 1 0.1090 284512.000
2926 2929 1 0.1529 224262.400
2929 2930 1 0.1090 284512.000
2929 2931 1 0.1090 284512.000
2929 2932 1 0.1090 284512.000
2933 2934 1 0.1090 284512.000
2934 2935 1 0.1090 284512.000
2934 2936 1 0.1090 284512.000
2934 2937 1 0.1510 265265.600
2937 2938 1 0.1340 459403.200
2937 2941 1 0.1444 343088.000
2938 2939 1 0.1080 284512.000
2938 2940 1 0.1080 284512.000
2938 2985 1 0.152900 224262.400000
2941 2942 1 0.1229 476976.000
2941 2943 1 0.1327 179075.200
2943 2944 1 0.1410 267776.000
2944 2945 1 0.1090 284512.000
2944 2946 1 0.1090 284512.000
2944 2947 1 0.1529 224262.400
2947 2948 1 0.1090 284512.000
2947 2949 1 0.1090 284512.000
2947 2950 1 0.1529 224262.400
2950 2951 1 0.1090 284512.000
2950 2952 1 0.1090 284512.000
2950 2953 1 0.1529 224262.400
2953 2954 1 0.1090 284512.000
2953 2955 1 0.1090 284512.000
2953 2956 1 0.1529 224262.400
2956 2957 1 0.1090 284512.000
2956 2958 1 0.1090 284512.000
2956 2959 1 0.1529 224262.400
2959 2960 1 0.1090 284512.000
2959 2961 1 0.1090 284512.000
2959 2962 1 0.1529 224262.400
2962 2963 1 0.1090 284512.000
2962 2964 1 0.1090 284512.000
2962 2965 1 0.1529 224262.400
2965 2966 1 0.1090 284512.000
2965 2967 1 0.1090 284512.000
2965 2968 1 0.1529 224262.400
2968 2969 1 0.1090 284512.000
2968 2970 1 0.1090 284512.000
2968 2971 1 0.1529 224262.400
2971 2972 1 0.1090 284512.000
2971 2973 1 0.1090 284512.000
2971 2974 1 0.1529 224262.400
2974 2975 1 0.1090 284512.000
2974 2976 1 0.1090 284512.000
2974 2977 1 0.1529 224262.400
2977 2978 1 0.1090 284512.000
2977 2979 1 0.1090 284512.000
2977 2980 1 0.1090 284512.000
2981 2982 1 0.1090 284512.000
2982 2983 1 0.1090 284512.000
2982 2984 1 0.1090 284512.000
2982 2985 1 0.1510 265265.600
2985 2986 1 0.1340 459403.200
2985 2989 1 0.1444 343088.000
2986 2987 1 0.1080 284512.000
2986 2988 1 0.1080 284512.000
2986 3021 1 0.152900 224262.400000
2989 2990 1 0.1229 476976.000
2989 2991 1 0.1327 179075.200
2991 2992 1 0.1410 267776.000
2992 2993 1 0.1090 284512.000
2992 2994 1 0.1090 284512.000
2992 2995 1 0.1529 224262.400
2995 2996 1 0.1090 284512.000
2995 2997 1 0.1529 224262.400
2995 3004 1 0.1529 224262.400
2997 2998 1 0.1090 284512.000
2997 2999 1 0.1090 284512.000
2997 3000 1 0.1529 224262.400
3000 3001 1 0.1090 284512.000
3000 3002 1 0.1090 284512.000
3000 3003 1 0.1090 284512.000
3004 3005 1 0.1090 284512.000
3004 3006 1 0.1090 284512.000
3004 3007 1 0.1529 224262.400
3007 3008 1 0.1090 284512.000
3007 3009 1 0.1090 284512.000
3007 3010 1 0.1529 224262.400
3010 3011 1 0.1090 284512.000
3010 3012 1 0.1090 284512.000
3010 3013 1 0.1529 224262.400
3013 3014 1 0.1090 284512.000
3013 3015 1 0.1090 284512.000
3013 3016 1 0.1090 284512.000
3017 3018 1 0.1090 284512.000
3018 3019 1 0.1090 284512.000
3018 3020 1 0.1090 284512.000
3018 3021 1 0.1510 265265.600
3021 3022 1 0.1340 459403.200
3021 3025 1 0.1444 343088.000
3022 3023 1 0.1080 284512.000
3022 3024 1 0.1080 284512.000
3022 3069 1 0.152900 224262.400000
3025 3026 1 0.1229 476976.000
3025 3027 1 0.1327 179075.200
3027 3028 1 0.1410 267776.000
3028 3029 1 0.1090 284512.000
3028 3030 1 0.1090 284512.000
3028 3031 1 0.1529 224262.400
3031 3032 1 0.1090 284512.000
3031 3033 1 0.1090 284512.000
3031 3034 1 0.1529 224262.400
3034 3035 1 0.1090 284512.000
3034 3036 1 0.1090 284512.000
3034 3037 1 0.1529 224262.400
3037 3038 1 0.1090 284512.000
3037 3039 1 0.1090 284512.000
3037 3040 1 0.1529 224262.400
3040 3041 1 0.1090 284512.000
3040 3042 1 0.1090 284512.000
3040 3043 1 0.1529 224262.400
3043 3044 1 0.1090 284512.000
3043 3045 1 0.1090 284512.000
3043 3046 1 0.1529 224262.400
3046 3047 1 0.1090 284512.000
3046 3048 1 0.1090 284512.000
3046 3049 1 0.1529 224262.400
3049 3050 1 0.1090 284512.000
3049 3051 1 0.1090 284512.000
3049 3052 1 0.1529 224262.400
3052 3053 1 0.1090 284512.000
3052 3054 1 0.1090 284512.000
3052 3055 1 0.1529 224262.400
3055 3056 1 0.1090 284512.000
3055 3057 1 0.1090 284512.000
3055 3058 1 0.1529 224262.400
3058 3059 1 0.1090 284512.000
3058 3060 1 0.1090 284512.000
3058 3061 1 0.1529 224262.400
3061 3062 1 0.1090 284512.000
3061 3063 1 0.1090 284512.000
3061 3064 1 0.1090 284512.000
3065 3066 1 0.1090 284512.000
3066 3067 1 0.1090 284512.000
3066 3068 1 0.1090 284512.000
3066 3069 1 0.1510 265265.600
3069 3070 1 0.1340 459403.200
3069 3073 1 0.1444 343088.000
3070 3071 1 0.1080 284512.000
3070 3072 1 0.1080 284512.000
3070 3135 1 0.152900 224262.400000
3073 3074 1 0.1229 476976.000
3073 3075 1 0.1327 179075.200
3075 3076 1 0.1410 267776.000
3076 3077 1 0.1090 284512.000
3076 3078 1 0.1090 284512.000
3076 3079 1 0.1529 224262.400
3079 3080 1 0.1090 284512.000
3079 3081 1 0.1090 284512.000
3079 3082 1 0.1529 224262.400
3082 3083 1 0.1090 284512.000
3082 3084 1 0.1090 284512.000
3082 3085 1 0.1529 224262.400
3085 3086 1 0.1090 284512.000
3085 3087 1 0.1090 284512.000
3085 3088 1 0.1529 224262.400
3088 3089 1 0.1090 284512.000
3088 3090 1 0.1090 284512.000
3088 3091 1 0.1529 224262.400
3091 3092 1 0.1090 284512.000
3091 3093 1 0.1090 284512.000
3091 3094 1 0.1529 224262.400
3094 3095 1 0.1090 284512.000
3094 3096 1 0.1090 284512.000
3094 3097 1 0.1529 224262.400
3097 3098 1 0.1090 284512.000
3097 3099 1 0.1090 284512.000
3097 3100 1 0.1529 224262.400
3100 3101 1 0.1090 284512.000
3100 3102 1 0.1090 284512.000
3100 3103 1 0.1529 224262.400
3103 3104 1 0.1090 284512.000
3103 3105 1 0.1090 284512.000
3103 3106 1 0.1529 224262.400
3106 3107 1 0.1090 284512.000
3106 3108 1 0.1090 284512.000
3106 3109 1 0.1529 224262.400
3109 3110 1 0.1090 284512.000
3109 3111 1 0.1090 284512.000
3109 3112 1 0.1529 224262.400
3112 3113 1 0.1090 284512.000
3112 3114 1 0.1090 284512.000
3112 3115 1 0.1529 224262.400
3115 3116 1 0.1090 284512.000
3115 3117 1 0.1090 284512.000
3115 3118 1 0.1529 224262.400
3118 3119 1 0.1090 284512.000
3118 3120 1 0.1090 284512.000
3118 3121 1 0.1529 224262.400
3121 3122 1 0.1090 284512.000
3121 3123 1 0.1090 284512.000
3121 3124 1 0.1529 224262.400
3124 3125 1 0.1090 284512.000
3124 3126 1 0.1090 284512.000
3124 3127 1 0.1529 224262.400
3127 3128 1 0.1090 284512.000
3127 3129 1 0.1090 284512.000
3127 3130 1 0.1090 284512.000
3131 3132 1 0.1090 284512.000
3132 3133 1 0.1090 284512.000
3132 3134 1 0.1090 284512.000
3132 3135 1 0.1510 265265.600
3135 3136 1 0.1340 459403.200
3135 3139 1 0.1444 343088.000
3136 3137 1 0.1080 284512.000
3136 3138 1 0.1080 284512.000
3136 3201 1 0.152900 224262.400000
3139 3140 1 0.1229 476976.000
3139 3141 1 0.1327 179075.200
3141 3142 1 0.1410 267776.000
3142 3143 1 0.1090 284512.000
3142 3144 1 0.1090 284512.000
3142 3145 1 0.1529 224262.400
3145 3146 1 0.1090 284512.000
3145 3147 1 0.1090 284512.000
3145 3148 1 0.1529 224262.400
3148 3149 1 0.1090 284512.000
3148 3150 1 0.1090 284512.000
3148 3151 1 0.1529 224262.400
3151 3152 1 0.1090 284512.000
3151 3153 1 0.1090 284512.000
3151 3154 1 0.1529 224262.400
3154 3155 1 0.1090 284512.000
3154 3156 1 0.1090 284512.000
3154 3157 1 0.1529 224262.400
3157 3158 1 0.1090 284512.000
3157 3159 1 0.1090 284512.000
3157 3160 1 0.1529 224262.400
3160 3161 1 0.1090 284512.000
3160 3162 1 0.1090 284512.000
3160 3163 1 0.1529 224262.400
3163 3164 1 0.1090 284512.000
3163 3165 1 0.1090 284512.000
3163 3166 1 0.1529 224262.400
3166 3167 1 0.1090 284512.000
3166 3168 1 0.1090 284512.000
3166 3169 1 0.1529 224262.400
3169 3170 1 0.1090 284512.000
3169 3171 1 0.1090 284512.000
3169 3172 1 0.1529 224262.400
3172 3173 1 0.1090 284512.000
3172 3174 1 0.1090 284512.000
3172 3175 1 0.1529 224262.400
3175 3176 1 0.1090 284512.000
3175 3177 1 0.1090 284512.000
3175 3178 1 0.1529 224262.400
3178 3179 1 0.1090 284512.000
3178 3180 1 0.1090 284512.000
3178 3181 1 0.1529 224262.400
3181 3182 1 0.1090 284512.000
3181 3183 1 0.1090 284512.000
3181 3184 1 0.1529 224262.400
3184 3185 1 0.1090 284512.000
3184 3186 1 0.1090 284512.000
3184 3187 1 0.1529 224262.400
3187 3188 1 0.1090 284512.000
3187 3189 1 0.1090 284512.000
3187 3190 1 0.1529 224262.400
3190 3191 1 0.1090 284512.000
3190 3192 1 0.1090 284512.000
3190 3193 1 0.1529 224262.400
3193 3194 1 0.1090 284512.000
3193 3195 1 0.1090 284512.000
3193 3196 1 0.1090 284512.000
3197 3198 1 0.1090 284512.000
3198 3199 1 0.1090 284512.000
3198 3200 1 0.1090 284512.000
3198 3201 1 0.1510 265265.600
3201 3202 1 0.1340 459403.200
3201 3205 1 0.1444 343088.000
3202 3203 1 0.1080 284512.000
3202 3204 1 0.1080 284512.000
3202 3267 1 0.152900 224262.400000
3205 3206 1 0.1229 476976.000
3205 3207 1 0.1327 179075.200
3207 3208 1 0.1410 267776.000
3208 3209 1 0.1090 284512.000
3208 3210 1 0.1090 284512.000
3208 3211 1 0.1529 224262.400
3211 3212 1 0.1090 284512.000
3211 3213 1 0.1090 284512.000
3211 3214 1 0.1529 224262.400
3214 3215 1 0.1090 284512.000
3214 3216 1 0.1090 284512.000
3214 3217 1 0.1529 224262.400
3217 3218 1 0.1090 284512.000
3217 3219 1 0.1090 284512.000
3217 3220 1 0.1529 224262.400
3220 3221 1 0.1090 284512.000
3220 3222 1 0.1090 284512.000
3220 3223 1 0.1529 224262.400
3223 3224 1 0.1090 284512.000
3223 3225 1 0.1090 284512.000
3223 3226 1 0.1529 224262.400
3226 3227 1 0.1090 284512.000
3226 3228 1 0.1090 284512.000
3226 3229 1 0.1529 224262.400
3229 3230 1 0.1090 284512.000
3229 3231 1 0.1090 284512.000
3229 3232 1 0.1529 224262.400
3232 3233 1 0.1090 284512.000
3232 3234 1 0.1090 284512.000
3232 3235 1 0.1529 224262.400
3235 3236 1 0.1090 284512.000
3235 3237 1 0.1090 284512.000
3235 3238 1 0.1529 224262.400
3238 3239 1 0.1090 284512.000
3238 3240 1 0.1090 284512.000
3238 3241 1 0.1529 224262.400
3241 3242 1 0.1090 284512.000
3241 3243 1 0.1090 284512.000
3241 3244 1 0.1529 224262.400
3244 3245 1 0.1090 284512.000
3244 3246 1 0.1090 284512.000
3244 3247 1 0.1529 224262.400
3247 3248 1 0.1090 284512.000
3247 3249 1 0.1090 284512.000
3247 3250 1 0.1529 224262.400
3250 3251 1 0.1090 284512.000
3250 3252 1 0.1090 284512.000
3250 3253 1 0.1529 224262.400
3253 3254 1 0.1090 284512.000
3253 3255 1 0.1090 284512.000
3253 3256 1 0.1529 224262.400
3256 3257 1 0.1090 284512.000
3256 3258 1 0.1090 284512.000
3256 3259 1 0.1529 224262.400
3259 3260 1 0.1090 284512.000
3259 3261 1 0.1090 284512.000
3259 3262 1 0.1090 284512.000
3263 3264 1 0.1090 284512.000
3264 3265 1 0.1090 284512.000
3264 3266 1 0.1090 284512.000
3264 3267 1 0.1510 265265.600
3267 3268 1 0.1340 459403.200
3267 3271 1 0.1444 343088.000
3268 3269 1 0.1080 284512.000
3268 3270 1 0.1080 284512.000
3268 3303 1 0.152900 224262.400000
3271 3272 1 0.1229 476976.000
3271 3273 1 0.1327 179075.200
3273 3274 1 0.1410 267776.000
3274 3275 1 0.1090 284512.000
3274 3276 1 0.1090 284512.000
3274 3277 1 0.1529 224262.400
3277 3278 1 0.1090 284512.000
3277 3279 1 0.1529 224262.400
3277 3286 1 0.1529 224262.400
3279 3280 1 0.1090 284512.000
3279 3281 1 0.1090 284512.000
3279 3282 1 0.1529 224262.400
3282 3283 1 0.1090 284512.000
3282 3284 1 0.1090 284512.000
3282 3285 1 0.1090 284512.000
3286 3287 1 0.1090 284512.000
3286 3288 1 0.1090 284512.000
3286 3289 1 0.1529 224262.400
3289 3290 1 0.1090 284512.000
3289 3291 1 0.1090 284512.000
3289 3292 1 0.1529 224262.400
3292 3293 1 0.1090 284512.000
3292 3294 1 0.1090 284512.000
3292 3295 1 0.1529 224262.400
3295 3296 1 0.1090 284512.000
3295 3297 1 0.1090 284512.000
3295 3298 1 0.1090 284512.000
3299 3300 1 0.1090 284512.000
3300 3301 1 0.1090 284512.000
3300 3302 1 0.1090 284512.000
3300 3303 1 0.1510 265265.600
3303 3304 1 0.1340 459403.200
3303 3307 1 0.1444 343088.000
3304 3305 1 0.1080 284512.000
3304 3306 1 0.1080 284512.000
3304 3351 1 0.152900 224262.400000
3307 3308 1 0.1229 476976.000
3307 3309 1 0.1327 179075.200
3309 3310 1 0.1410 267776.000
3310 3311 1 0.1090 284512.000
3310 3312 1 0.1090 284512.000
3310 3313 1 0.1529 224262.400
3313 3314 1 0.1090 284512.000
3313 3315 1 0.1090 284512.000
3313 3316 1 0.1529 224262.400
3316 3317 1 0.1090 284512.000
3316 3318 1 0.1090 284512.000
3316 3319 1 0.1529 224262.400
3319 3320 1 0.1090 284512.000
3319 3321 1 0.1090 284512.000
3319 3322 1 0.1529 224262.400
3322 3323 1 0.1090 284512.000
3322 3324 1 0.1090 284512.000
3322 3325 1 0.1529 224262.400
3325 3326 1 0.1090 284512.000
3325 3327 1 0.1090 284512.000
3325 3328 1 0.1529 224262.400
3328 3329 1 0.1090 284512.000
3328 3330 1 0.1090 284512.000
3328 3331 1 0.1529 224262.400
3331 3332 1 0.1090 284512.000
3331 3333 1 0.1090 284512.000
3331 3334 1 0.1529 224262.400
3334 3335 1 0.1090 284512.000
3334 3336 1 0.1090 284512.000
3334 3337 1 0.1529 224262.400
3337 3338 1 0.1090 284512.000
3337 3339 1 0.1090 284512.000
3337 3340 1 0.1529 224262.400
3340 3341 1 0.1090 284512.000
3340 3342 1 0.1090 284512.000
3340 3343 1 0.1529 224262.400
3343 3344 1 0.1090 284512.000
3343 3345 1 0.1090 284512.000
3343 3346 1 0.1090 284512.000
3347 3348 1 0.1090 284512.000
3348 3349 1 0.1090 284512.000
3348 3350 1 0.1090 284512.000
3348 3351 1 0.1510 265265.600
3351 3352 1 0.1340 459403.200
3351 3355 1 0.1444 343088.000
3352 3353 1 0.1080 284512.000
3352 3354 1 0.1080 284512.000
3352 3417 1 0.152900 224262.400000
3355 3356 1 0.1229 476976.000
3355 3357 1 0.1327 179075.200
3357 3358 1 0.1410 267776.000
3358 3359 1 0.1090 284512.000
3358 3360 1 0.1090 284512.000
3358 3361 1 0.1529 224262.400
3361 3362 1 0.1090 284512.000
3361 3363 1 0.1090 284512.000
3361 3364 1 0.1529 224262.400
3364 3365 1 0.1090 284512.000
3364 3366 1 0.1090 284512.000
3364 3367 1 0.1529 224262.400
3367 3368 1 0.1090 284512.000
3367 3369 1 0.1090 284512.000
3367 3370 1 0.1529 224262.400
3370 3371 1 0.1090 284512.000
3370 3372 1 0.1090 284512.000
3370 3373 1 0.1529 224262.400
3373 3374 1 0.1090 284512.000
3373 3375 1 0.1090 284512.000
3373 3376 1 0.1529 224262.400
3376 3377 1 0.1090 284512.000
3376 3378 1 0.1090 284512.000
3376 3379 1 0.1529 224262.400
3379 3380 1 0.1090 284512.000
3379 3381 1 0.1090 284512.000
3379 3382 1 0.1529 224262.400
3382 3383 1 0.1090 284512.000
3382 3384 1 0.1090 284512.000
3382 3385 1 0.1529 224262.400
3385 3386 1 0.1090 284512.000
3385 3387 1 0.1090 284512.000
3385 3388 1 0.1529 224262.400
3388 3389 1 0.1090 284512.000
3388 3390 1 0.1090 284512.000
3388 3391 1 0.1529 224262.400
3391 3392 1 0.1090 284512.000
3391 3393 1 0.1090 284512.000
3391 3394 1 0.1529 224262.400
3394 3395 1 0.1090 284512.000
3394 3396 1 0.1090 284512.000
3394 3397 1 0.1529 224262.400
3397 3398 1 0.1090 284512.000
3397 3399 1 0.1090 284512.000
3397 3400 1 0.1529 224262.400
3400 3401 1 0.1090 284512.000
3400 3402 1 0.1090 284512.000
3400 3403 1 0.1529 224262.400
3403 3404 1 0.1090 284512.000
3403 3405 1 0.1090 284512.000
3403 3406 1 0.1529 224262.400
3406 3407 1 0.1090 284512.000
3406 3408 1 0.1090 284512.000
3406 3409 1 0.1529 224262.400
3409 3410 1 0.1090 284512.000
3409 3411 1 0.1090 284512.000
3409 3412 1 0.1090 284512.000
3413 3414 1 0.1090 284512.000
3414 3415 1 0.1090 284512.000
3414 3416 1 0.1090 284512.000
3414 3417 1 0.1510 265265.600
3417 3418 1 0.1340 459403.200
3417 3421 1 0.1444 343088.000
3418 3419 1 0.1080 284512.000
3418 3420 1 0.1080 284512.000
3418 3453 1 0.152900 224262.400000
3421 3422 1 0.1229 476976.000
3421 3423 1 0.1327 179075.200
3423 3424 1 0.1410 267776.000
3424 3425 1 0.1090 284512.000
3424 3426 1 0.1090 284512.000
3424 3427 1 0.1529 224262.400
3427 3428 1 0.1090 284512.000
3427 3429 1 0.1529 224262.400
3427 3436 1 0.1529 224262.400
3429 3430 1 0.1090 284512.000
3429 3431 1 0.1090 284512.000
3429 3432 1 0.1529 224262.400
3432 3433 1 0.1090 284512.000
3432 3434 1 0.1090 284512.000
3432 3435 1 0.1090 284512.000
3436 3437 1 0.1090 284512.000
3436 3438 1 0.1090 284512.000
3436 3439 1 0.1529 224262.400
3439 3440 1 0.1090 284512.000
3439 3441 1 0.1090 284512.000
3439 3442 1 0.1529 224262.400
3442 3443 1 0.1090 284512.000
3442 3444 1 0.1090 284512.000
3442 3445 1 0.1529 224262.400
3445 3446 1 0.1090 284512.000
3445 3447 1 0.1090 284512.000
3445 3448 1 0.1090 284512.000
3449 3450 1 0.1090 284512.000
3450 3451 1 0.1090 284512.000
3450 3452 1 0.1090 284512.000
3450 3453 1 0.1510 265265.600
3453 3454 1 0.1340 459403.200
3453 3457 1 0.1444 343088.000
3454 3455 1 0.1080 284512.000
3454 3456 1 0.1080 284512.000
3454 3501 1 0.152900 224262.400000
3457 3458 1 0.1229 476976.000
3457 3459 1 0.1327 179075.200
3459 3460 1 0.1410 267776.000
3460 3461 1 0.1090 284512.000
3460 3462 1 0.1090 284512.000
3460 3463 1 0.1529 224262.400
3463 3464 1 0.1090 284512.000
3463 3465 1 0.1090 284512.000
3463 3466 1 0.1529 224262.400
3466 3467 1 0.1090 284512.000
3466 3468 1 0.1090 284512.000
3466 3469 1 0.1529 224262.400
3469 3470 1 0.1090 284512.000
3469 3471 1 0.1090 284512.000
3469 3472 1 0.1529 224262.400
3472 3473 1 0.1090 284512.000
3472 3474 1 0.1090 284512.000
3472 3475 1 0.1529 224262.400
3475 3476 1 0.1090 284512.000
3475 3477 1 0.1090 284512.000
3475 3478 1 0.1529 224262.400
3478 3479 1 0.1090 284512.000
3478 3480 1 0.1090 284512.000
3478 3481 1 0.1529 224262.400
3481 3482 1 0.1090 284512.000
3481 3483 1 0.1090 284512.000
3481 3484 1 0.1529 224262.400
3484 3485 1 0.1090 284512.000
3484 3486 1 0.1090 284512.000
3484 3487 1 0.1529 224262.400
3487 3488 1 0.1090 284512.000
3487 3489 1 0.1090 284512.000
3487 3490 1 0.1529 224262.400
3490 3491 1 0.1090 284512.000
3490 3492 1 0.1090 284512.000
3490 3493 1 0.1529 224262.400
3493 3494 1 0.1090 284512.000
3493 3495 1 0.1090 284512.000
3493 3496 1 0.1090 284512.000
3497 3498 1 0.1090 284512.000
3498 3499 1 0.1090 284512.000
3498 3500 1 0.1090 284512.000
3498 3501 1 0.1510 265265.600
3501 3502 1 0.1340 459403.200
3501 3505 1 0.1444 343088.000
3502 3503 1 0.1080 284512.000
3502 3504 1 0.1080 284512.000
3502 3537 1 0.152900 224262.400000
3505 3506 1 0.1229 476976.000
3505 3507 1 0.1327 179075.200
3507 3508 1 0.1410 267776.000
3508 3509 1 0.1090 284512.000
3508 3510 1 0.1090 284512.000
3508 3511 1 0.1529 224262.400
3511 3512 1 0.1090 284512.000
3511 3513 1 0.1529 224262.400
3511 3520 1 0.1529 224262.400
3513 3514 1 0.1090 284512.000
3513 3515 1 0.1090 284512.000
3513 3516 1 0.1529 224262.400
3516 3517 1 0.1090 284512.000
3516 3518 1 0.1090 284512.000
3516 3519 1 0.1090 284512.000
3520 3521 1 0.1090 284512.000
3520 3522 1 0.1090 284512.000
3520 3523 1 0.1529 224262.400
3523 3524 1 0.1090 284512.000
3523 3525 1 0.1090 284512.000
3523 3526 1 0.1529 224262.400
3526 3527 1 0.1090 284512.000
3526 3528 1 0.1090 284512.000
3526 3529 1 0.1529 224262.400
3529 3530 1 0.1090 284512.000
3529 3531 1 0.1090 284512.000
3529 3532 1 0.1090 284512.000
3533 3534 1 0.1090 284512.000
3534 3535 1 0.1090 284512.000
3534 3536 1 0.1090 284512.000
3534 3537 1 0.1510 265265.600
3537 3538 1 0.1340 459403.200
3537 3541 1 0.1444 343088.000
3538 3539 1 0.1080 284512.000
3538 3540 1 0.1080 284512.000
3538 3573 1 0.152900 224262.400000
3541 3542 1 0.1229 476976.000
3541 3543 1 0.1327 179075.200
3543 3544 1 0.1410 267776.000
3544 3545 1 0.1090 284512.000
3544 3546 1 0.1090 284512.000
3544 3547 1 0.1529 224262.400
3547 3548 1 0.1090 284512.000
3547 3549 1 0.1529 224262.400
3547 3556 1 0.1529 224262.400
3549 3550 1 0.1090 284512.000
3549 3551 1 0.1090 284512.000
3549 3552 1 0.1529 224262.400
3552 3553 1 0.1090 284512.000
3552 3554 1 0.1090 284512.000
3552 3555 1 0.1090 284512.000
3556 3557 1 0.1090 284512.000
3556 3558 1 0.1090 284512.000
3556 3559 1 0.1529 224262.400
3559 3560 1 0.1090 284512.000
3559 3561 1 0.1090 284512.000
3559 3562 1 0.1529 224262.400
3562 3563 1 0.1090 284512.000
3562 3564 1 0.1090 284512.000
3562 3565 1 0.1529 224262.400
3565 3566 1 0.1090 284512.000
3565 3567 1 0.1090 284512.000
3565 3568 1 0.1090 284512.000
3569 3570 1 0.1090 284512.000
3570 3571 1 0.1090 284512.000
3570 3572 1 0.1090 284512.000
3570 3573 1 0.1510 265265.600
3573 3574 1 0.1340 459403.200
3573 3577 1 0.1444 343088.000
3574 3575 1 0.1080 284512.000
3574 3576 1 0.1080 284512.000
3574 3609 1 0.152900 224262.400000
3577 3578 1 0.1229 476976.000
3577 3579 1 0.1327 179075.200
3579 3580 1 0.1410 267776.000
3580 3581 1 0.1090 284512.000
3580 3582 1 0.1090 284512.000
3580 3583 1 0.1529 224262.400
3583 3584 1 0.1090 284512.000
3583 3585 1 0.1529 224262.400
3583 3592 1 0.1529 224262.400
3585 3586 1 0.1090 284512.000
3585 3587 1 0.1090 284512.000
3585 3588 1 0.1529 224262.400
3588 3589 1 0.1090 284512.000
3588 3590 1 0.1090 284512.000
3588 3591 1 0.1090 284512.000
3592 3593 1 0.1090 284512.000
3592 3594 1 0.1090 284512.000
3592 3595 1 0.1529 224262.400
3595 3596 1 0.1090 284512.000
3595 3597 1 0.1090 284512.000
3595 3598 1 0.1529 224262.400
3598 3599 1 0.1090 284512.000
3598 3600 1 0.1090 284512.000
3598 3601 1 0.1529 224262.400
3601 3602 1 0.1090 284512.000
3601 3603 1 0.1090 284512.000
3601 3604 1 0.1090 284512.000
3605 3606 1 0.1090 284512.000
3606 3607 1 0.1090 284512.000
3606 3608 1 0.1090 284512.000
3606 3609 1 0.1510 265265.600
3609 3610 1 0.1340 459403.200
3609 3613 1 0.1444 343088.000
3610 3611 1 0.1080 284512.000
3610 3612 1 0.1080 284512.000
3610 3657 1 0.152900 224262.400000
3613 3614 1 0.1229 476976.000
3613 3615 1 0.1327 179075.200
3615 3616 1 0.1410 267776.000
3616 3617 1 0.1090 284512.000
3616 3618 1 0.1090 284512.000
3616 3619 1 0.1529 224262.400
3619 3620 1 0.1090 284512.000
3619 3621 1 0.1090 284512.000
3619 3622 1 0.1529 224262.400
3622 3623 1 0.1090 284512.000
3622 3624 1 0.1090 284512.000
3622 3625 1 0.1529 224262.400
3625 3626 1 0.1090 284512.000
3625 3627 1 0.1090 284512.000
3625 3628 1 0.1529 224262.400
3628 3629 1 0.1090 284512.000
3628 3630 1 0.1090 284512.000
3628 3631 1 0.1529 224262.400
3631 3632 1 0.1090 284512.000
3631 3633 1 0.1090 284512.000
3631 3634 1 0.1529 224262.400
3634 3635 1 0.1090 284512.000
3634 3636 1 0.1090 284512.000
3634 3637 1 0.1529 224262.400
3637 3638 1 0.1090 284512.000
3637 3639 1 0.1090 284512.000
3637 3640 1 0.1529 224262.400
3640 3641 1 0.1090 284512.000
3640 3642 1 0.1090 284512.000
3640 3643 1 0.1529 224262.400
3643 3644 1 0.1090 284512.000
3643 3645 1 0.1090 284512.000
3643 3646 1 0.1529 224262.400
3646 3647 1 0.1090 284512.000
3646 3648 1 0.1090 284512.000
3646 3649 1 0.1529 224262.400
3649 3650 1 0.1090 284512.000
3649 3651 1 0.1090 284512.000
3649 3652 1 0.1090 284512.000
3653 3654 1 0.1090 284512.000
3654 3655 1 0.1090 284512.000
3654 3656 1 0.1090 284512.000
3654 3657 1 0.1510 265265.600
3657 3658 1 0.1340 459403.200
3657 3661 1 0.1444 343088.000
3658 3659 1 0.1080 284512.000
3658 3660 1 0.1080 284512.000
3658 3723 1 0.152900 224262.400000
3661 3662 1 0.1229 476976.000
3661 3663 1 0.1327 179075.200
3663 3664 1 0.1410 267776.000
3664 3665 1 0.1090 284512.000
3664 3666 1 0.1090 284512.000
3664 3667 1 0.1529 224262.400
3667 3668 1 0.1090 284512.000
3667 3669 1 0.1090 284512.000
3667 3670 1 0.1529 224262.400
3670 3671 1 0.1090 284512.000
3670 3672 1 0.1090 284512.000
3670 3673 1 0.1529 224262.400
3673 3674 1 0.1090 284512.000
3673 3675 1 0.1090 284512.000
3673 3676 1 0.1529 224262.400
3676 3677 1 0.1090 284512.000
3676 3678 1 0.1090 284512.000
3676 3679 1 0.1529 224262.400
3679 3680 1 0.1090 284512.000
3679 3681 1 0.1090 284512.000
3679 3682 1 0.1529 224262.400
3682 3683 1 0.1090 284512.000
3682 3684 1 0.1090 284512.000
3682 3685 1 0.1529 224262.400
3685 3686 1 0.1090 284512.000
3685 3687 1 0.1090 284512.000
3685 3688 1 0.1529 224262.400
3688 3689 1 0.1090 284512.000
3688 3690 1 0.1090 284512.000
3688 3691 1 0.1529 224262.400
3691 3692 1 0.1090 284512.000
3691 3693 1 0.1090 284512.000
3691 3694 1 0.1529 224262.400
3694 3695 1 0.1090 284512.000
3694 3696 1 0.1090 284512.000
3694 3697 1 0.1529 224262.400
3697 3698 1 0.1090 284512.000
3697 3699 1 0.1090 284512.000
3697 3700 1 0.1529 224262.400
3700 3701 1 0.1090 284512.000
3700 3702 1 0.1090 284512.000
3700 3703 1 0.1529 224262.400
3703 3704 1 0.1090 284512.000
3703 3705 1 0.1090 284512.000
3703 3706 1 0.1529 224262.400
3706 3707 1 0.1090 284512.000
3706 3708 1 0.1090 284512.000
3706 3709 1 0.1529 224262.400
3709 3710 1 0.1090 284512.000
3709 3711 1 0.1090 284512.000
3709 3712 1 0.1529 224262.400
3712 3713 1 0.1090 284512.000
3712 3714 1 0.1090 284512.000
3712 3715 1 0.1529 224262.400
3715 3716 1 0.1090 284512.000
3715 3717 1 0.1090 284512.000
3715 3718 1 0.1090 284512.000
3719 3720 1 0.1090 284512.000
3720 3721 1 0.1090 284512.000
3720 3722 1 0.1090 284512.000
3720 3723 1 0.1510 265265.600
3723 3724 1 0.1340 459403.200
3723 3727 1 0.1444 343088.000
3724 3725 1 0.1080 284512.000
3724 3726 1 0.1080 284512.000
3724 3759 1 0.152900 224262.400000
3727 3728 1 0.1229 476976.000
3727 3729 1 0.1327 179075.200
3729 3730 1 0.1410 267776.000
3730 3731 1 0.1090 284512.000
3730 3732 1 0.1090 284512.000
3730 3733 1 0.1529 224262.400
3733 3734 1 0.1090 284512.000
3733 3735 1 0.1529 224262.400
3733 3742 1 0.1529 224262.400
3735 3736 1 0.1090 284512.000
3735 3737 1 0.1090 284512.000
3735 3738 1 0.1529 224262.400
3738 3739 1 0.1090 284512.000
3738 3740 1 0.1090 284512.000
3738 3741 1 0.1090 284512.000
3742 3743 1 0.1090 284512.000
3742 3744 1 0.1090 284512.000
3742 3745 1 0.1529 224262.400
3745 3746 1 0.1090 284512.000
3745 3747 1 0.1090 284512.000
3745 3748 1 0.1529 224262.400
3748 3749 1 0.1090 284512.000
3748 3750 1 0.1090 284512.000
3748 3751 1 0.1529 224262.400
3751 3752 1 0.1090 284512.000
3751 3753 1 0.1090 284512.000
3751 3754 1 0.1090 284512.000
3755 3756 1 0.1090 284512.000
3756 3757 1 0.1090 284512.000
3756 3758 1 0.1090 284512.000
3756 3759 1 0.1510 265265.600
3759 3760 1 0.1340 459403.200
3759 3763 1 0.1444 343088.000
3760 3761 1 0.1080 284512.000
3760 3762 1 0.1080 284512.000
3760 3795 1 0.152900 224262.400000
3763 3764 1 0.1229 476976.000
3763 3765 1 0.1327 179075.200
3765 3766 1 0.1410 267776.000
3766 3767 1 0.1090 284512.000
3766 3768 1 0.1090 284512.000
3766 3769 1 0.1529 224262.400
3769 3770 1 0.1090 284512.000
3769 3771 1 0.1529 224262.400
3769 3778 1 0.1529 224262.400
3771 3772 1 0.1090 284512.000
3771 3773 1 0.1090 284512.000
3771 3774 1 0.1529 224262.400
3774 3775 1 0.1090 284512.000
3774 3776 1 0.1090 284512.000
3774 3777 1 0.1090 284512.000
3778 3779 1 0.1090 284512.000
3778 3780 1 0.1090 284512.000
3778 3781 1 0.1529 224262.400
3781 3782 1 0.1090 284512.000
3781 3783 1 0.1090 284512.000
3781 3784 1 0.1529 224262.400
3784 3785 1 0.1090 284512.000
3784 3786 1 0.1090 284512.000
3784 3787 1 0.1529 224262.400
3787 3788 1 0.1090 284512.000
3787 3789 1 0.1090 284512.000
3787 3790 1 0.1090 284512.000
3791 3792 1 0.1090 284512.000
3792 3793 1 0.1090 284512.000
3792 3794 1 0.1090 284512.000
3792 3795 1 0.1510 265265.600
3795 3796 1 0.1340 459403.200
3795 3799 1 0.1444 343088.000
3796 3797 1 0.1080 284512.000
3796 3798 1 0.1080 284512.000
3796 3843 1 0.152900 224262.400000
3799 3800 1 0.1229 476976.000
3799 3801 1 0.1327 179075.200
3801 3802 1 0.1410 267776.000
3802 3803 1 0.1090 284512.000
3802 3804 1 0.1090 284512.000
3802 3805 1 0.1529 224262.400
3805 3806 1 0.1090 284512.000
3805 3807 1 0.1090 284512.000
3805 3808 1 0.1529 224262.400
3808 3809 1 0.1090 284512.000
3808 3810 1 0.1090 284512.000
3808 3811 1 0.1529 224262.400
3811 3812 1 0.1090 284512.000
3811 3813 1 0.1090 284512.000
3811 3814 1 0.1529 224262.400
3814 3815 1 0.1090 284512.000
3814 3816 1 0.1090 284512.000
3814 3817 1 0.1529 224262.400
3817 3818 1 0.1090 284512.000
3817 3819 1 0.1090 284512.000
3817 3820 1 0.1529 224262.400
3820 3821 1 0.1090 284512.000
3820 3822 1 0.1090 284512.000
3820 3823 1 0.1529 224262.400
3823 3824 1 0.1090 284512.000
3823 3825 1 0.1090 284512.000
3823 3826 1 0.1529 224262.400
3826 3827 1 0.1090 284512.000
3826 3828 1 0.1090 284512.000
3826 3829 1 0.1529 224262.400
3829 3830 1 0.1090 284512.000
3829 3831 1 0.1090 284512.000
3829 3832 1 0.1529 224262.400
3832 3833 1 0.1090 284512.000
3832 3834 1 0.1090 284512.000
3832 3835 1 0.1529 224262.400
3835 3836 1 0.1090 284512.000
3835 3837 1 0.1090 284512.000
3835 3838 1 0.1090 284512.000
3839 3840 1 0.1090 284512.000
3840 3841 1 0.1090 284512.000
3840 3842 1 0.1090 284512.000
3840 3843 1 0.1510 265265.600
3843 3844 1 0.1340 459403.200
3843 3847 1 0.1444 343088.000
3844 3845 1 0.1080 284512.000
3844 3846 1 0.1080 284512.000
3844 3879 1 0.152900 224262.400000
3847 3848 1 0.1229 476976.000
3847 3849 1 0.1327 179075.200
3849 3850 1 0.1410 267776.000
3850 3851 1 0.1090 284512.000
3850 3852 1 0.1090 284512.000
3850 3853 1 0.1529 224262.400
3853 3854 1 0.1090 284512.000
3853 3855 1 0.1529 224262.400
3853 3862 1 0.1529 224262.400
3855 3856 1 0.1090 284512.000
3855 3857 1 0.1090 284512.000
3855 3858 1 0.1529 224262.400
3858 3859 1 0.1090 284512.000
3858 3860 1 0.1090 284512.000
3858 3861 1 0.1090 284512.000
3862 3863 1 0.1090 284512.000
3862 3864 1 0.1090 284512.000
3862 3865 1 0.1529 224262.400
3865 3866 1 0.1090 284512.000
3865 3867 1 0.1090 284512.000
3865 3868 1 0.1529 224262.400
3868 3869 1 0.1090 284512.000
3868 3870 1 0.1090 284512.000
3868 3871 1 0.1529 224262.400
3871 3872 1 0.1090 284512.000
3871 3873 1 0.1090 284512.000
3871 3874 1 0.1090 284512.000
3875 3876 1 0.1090 284512.000
3876 3877 1 0.1090 284512.000
3876 3878 1 0.1090 284512.000
3876 3879 1 0.1510 265265.600
3879 3880 1 0.1340 459403.200
3879 3883 1 0.1444 343088.000
3880 3881 1 0.1080 284512.000
3880 3882 1 0.1080 284512.000
3880 3927 1 0.152900 224262.400000
3883 3884 1 0.1229 476976.000
3883 3885 1 0.1327 179075.200
3885 3886 1 0.1410 267776.000
3886 3887 1 0.1090 284512.000
3886 3888 1 0.1090 284512.000
3886 3889 1 0.1529 224262.400
3889 3890 1 0.1090 284512.000
3889 3891 1 0.1090 284512.000
3889 3892 1 0.1529 224262.400
3892 3893 1 0.1090 284512.000
3892 3894 1 0.1090 284512.000
3892 3895 1 0.1529 224262.400
3895 3896 1 0.1090 284512.000
3895 3897 1 0.1090 284512.000
3895 3898 1 0.1529 224262.400
3898 3899 1 0.1090 284512.000
3898 3900 1 0.1090 284512.000
3898 3901 1 0.1529 224262.400
3901 3902 1 0.1090 284512.000
3901 3903 1 0.1090 284512.000
3901 3904 1 0.1529 224262.400
3904 3905 1 0.1090 284512.000
3904 3906 1 0.1090 284512.000
3904 3907 1 0.1529 224262.400
3907 3908 1 0.1090 284512.000
3907 3909 1 0.1090 284512.000
3907 3910 1 0.1529 224262.400
3910 3911 1 0.1090 284512.000
3910 3912 1 0.1090 284512.000
3910 3913 1 0.1529 224262.400
3913 3914 1 0.1090 284512.000
3913 3915 1 0.1090 284512.000
3913 3916 1 0.1529 224262.400
3916 3917 1 0.1090 284512.000
3916 3918 1 0.1090 284512.000
3916 3919 1 0.1529 224262.400
3919 3920 1 0.1090 284512.000
3919 3921 1 0.1090 284512.000
3919 3922 1 0.1090 284512.000
3923 3924 1 0.1090 284512.000
3924 3925 1 0.1090 284512.000
3924 3926 1 0.1090 284512.000
3924 3927 1 0.1510 265265.600
3927 3928 1 0.1340 459403.200
3927 3931 1 0.1444 343088.000
3928 3929 1 0.1080 284512.000
3928 3930 1 0.1080 284512.000
3928 3975 1 0.152900 224262.400000
3931 3932 1 0.1229 476976.000
3931 3933 1 0.1327 179075.200
3933 3934 1 0.1410 267776.000
3934 3935 1 0.1090 284512.000
3934 3936 1 0.1090 284512.000
3934 3937 1 0.1529 224262.400
3937 3938 1 0.1090 284512.000
3937 3939 1 0.1090 284512.000
3937 3940 1 0.1529 224262.400
3940 3941 1 0.1090 284512.000
3940 3942 1 0.1090 284512.000
3940 3943 1 0.1529 224262.400
3943 3944 1 0.1090 284512.000
3943 3945 1 0.1090 284512.000
3943 3946 1 0.1529 224262.400
3946 3947 1 0.1090 284512.000
3946 3948 1 0.1090 284512.000
3946 3949 1 0.1529 224262.400
3949 3950 1 0.1090 284512.000
3949 3951 1 0.1090 284512.000
3949 3952 1 0.1529 224262.400
3952 3953 1 0.1090 284512.000
3952 3954 1 0.1090 284512.000
3952 3955 1 0.1529 224262.400
3955 3956 1 0.1090 284512.000
3955 3957 1 0.1090 284512.000
3955 3958 1 0.1529 224262.400
3958 3959 1 0.1090 284512.000
3958 3960 1 0.1090 284512.000
3958 3961 1 0.1529 224262.400
3961 3962 1 0.1090 284512.000
3961 3963 1 0.1090 284512.000
3961 3964 1 0.1529 224262.400
3964 3965 1 0.1090 284512.000
3964 3966 1 0.1090 284512.000
3964 3967 1 0.1529 224262.400
3967 3968 1 0.1090 284512.000
3967 3969 1 0.1090 284512.000
3967 3970 1 0.1090 284512.000
3971 3972 1 0.1090 284512.000
3972 3973 1 0.1090 284512.000
3972 3974 1 0.1090 284512.000
3972 3975 1 0.1510 265265.600
3975 3976 1 0.1340 459403.200
3975 3979 1 0.1444 343088.000
3976 3977 1 0.1080 284512.000
3976 3978 1 0.1080 284512.000
3976 4011 1 0.152900 224262.400000
3979 3980 1 0.1229 476976.000
3979 3981 1 0.1327 179075.200
3981 3982 1 0.1410 267776.000
3982 3983 1 0.1090 284512.000
3982 3984 1 0.1090 284512.000
3982 3985 1 0.1529 224262.400
3985 3986 1 0.1090 284512.000
3985 3987 1 0.1529 224262.400
3985 3994 1 0.1529 224262.400
3987 3988 1 0.1090 284512.000
3987 3989 1 0.1090 284512.000
3987 3990 1 0.1529 224262.400
3990 3991 1 0.1090 284512.000
3990 3992 1 0.1090 284512.000
3990 3993 1 0.1090 284512.000
3994 3995 1 0.1090 284512.000
3994 3996 1 0.1090 284512.000
3994 3997 1 0.1529 224262.400
3997 3998 1 0.1090 284512.000
3997 3999 1 0.1090 284512.000
3997 4000 1 0.1529 224262.400
4000 4001 1 0.1090 284512.000
4000 4002 1 0.1090 284512.000
4000 4003 1 0.1529 224262.400
4003 4004 1 0.1090 284512.000
4003 4005 1 0.1090 284512.000
4003 4006 1 0.1090 284512.000
4007 4008 1 0.1090 284512.000
4008 4009 1 0.1090 284512.000
4008 4010 1 0.1090 284512.000
4008 4011 1 0.1510 265265.600
4011 4012 1 0.1340 459403.200
4011 4015 1 0.1444 343088.000
4012 4013 1 0.1080 284512.000
4012 4014 1 0.1080 284512.000
4012 4077 1 0.152900 224262.400000
4015 4016 1 0.1229 476976.000
4015 4017 1 0.1327 179075.200
4017 4018 1 0.1410 267776.000
4018 4019 1 0.1090 284512.000
4018 4020 1 0.1090 284512.000
4018 4021 1 0.1529 224262.400
4021 4022 1 0.1090 284512.000
4021 4023 1 0.1090 284512.000
4021 4024 1 0.1529 224262.400
4024 4025 1 0.1090 284512.000
4024 4026 1 0.1090 284512.000
4024 4027 1 0.1529 224262.400
4027 4028 1 0.1090 284512.000
4027 4029 1 0.1090 284512.000
4027 4030 1 0.1529 224262.400
4030 4031 1 0.1090 284512.000
4030 4032 1 0.1090 284512.000
4030 4033 1 0.1529 224262.400
4033 4034 1 0.1090 284512.000
4033 4035 1 0.1090 284512.000
4033 4036 1 0.1529 224262.400
4036 4037 1 0.1090 284512.000
4036 4038 1 0.1090 284512.000
4036 4039 1 0.1529 224262.400
4039 4040 1 0.1090 284512.000
4039 4041 1 0.1090 284512.000
4039 4042 1 0.1529 224262.400
4042 4043 1 0.1090 284512.000
4042 4044 1 0.1090 284512.000
4042 4045 1 0.1529 224262.400
4045 4046 1 0.1090 284512.000
4045 4047 1 0.1090 284512.000
4045 4048 1 0.1529 224262.400
4048 4049 1 0.1090 284512.000
4048 4050 1 0.1090 284512.000
4048 4051 1 0.1529 224262.400
4051 4052 1 0.1090 284512.000
4051 4053 1 0.1090 284512.000
4051 4054 1 0.1529 224262.400
4054 4055 1 0.1090 284512.000
4054 4056 1 0.1090 284512.000
4054 4057 1 0.1529 224262.400
4057 4058 1 0.1090 284512.000
4057 4059 1 0.1090 284512.000
4057 4060 1 0.1529 224262.400
4060 4061 1 0.1090 284512.000
4060 4062 1 0.1090 284512.000
4060 4063 1 0.1529 224262.400
4063 4064 1 0.1090 284512.000
4063 4065 1 0.1090 284512.000
4063 4066 1 0.1529 224262.400
4066 4067 1 0.1090 284512.000
4066 4068 1 0.1090 284512.000
4066 4069 1 0.1529 224262.400
4069 4070 1 0.1090 284512.000
4069 4071 1 0.1090 284512.000
4069 4072 1 0.1090 284512.000
4073 4074 1 0.1090 284512.000
4074 4075 1 0.1090 284512.000
4074 4076 1 0.1090 284512.000
4074 4077 1 0.1510 265265.600
4077 4078 1 0.1340 459403.200
4077 4081 1 0.1444 343088.000
4078 4079 1 0.1080 284512.000
4078 4080 1 0.1080 284512.000
4078 4125 1 0.152900 224262.400000
4081 4082 1 0.1229 476976.000
4081 4083 1 0.1327 179075.200
4083 4084 1 0.1410 267776.000
4084 4085 1 0.1090 284512.000
4084 4086 1 0.1090 284512.000
4084 4087 1 0.1529 224262.400
4087 4088 1 0.1090 284512.000
4087 4089 1 0.1090 284512.000
4087 4090 1 0.1529 224262.400
4090 4091 1 0.1090 284512.000
4090 4092 1 0.1090 284512.000
4090 4093 1 0.1529 224262.400
4093 4094 1 0.1090 284512.000
4093 4095 1 0.1090 284512.000
4093 4096 1 0.1529 224262.400
4096 4097 1 0.1090 284512.000
4096 4098 1 0.1090 284512.000
4096 4099 1 0.1529 224262.400
4099 4100 1 0.1090 284512.000
4099 4101 1 0.1090 284512.000
4099 4102 1 0.1529 224262.400
4102 4103 1 0.1090 284512.000
4102 4104 1 0.1090 284512.000
4102 4105 1 0.1529 224262.400
4105 4106 1 0.1090 284512.000
4105 4107 1 0.1090 284512.000
4105 4108 1 0.1529 224262.400
4108 4109 1 0.1090 284512.000
4108 4110 1 0.1090 284512.000
4108 4111 1 0.1529 224262.400
4111 4112 1 0.1090 284512.000
4111 4113 1 0.1090 284512.000
4111 4114 1 0.1529 224262.400
4114 4115 1 0.1090 284512.000
4114 4116 1 0.1090 284512.000
4114 4117 1 0.1529 224262.400
4117 4118 1 0.1090 284512.000
4117 4119 1 0.1090 284512.000
4117 4120 1 0.1090 284512.000
4121 4122 1 0.1090 284512.000
4122 4123 1 0.1090 284512.000
4122 4124 1 0.1090 284512.000
4122 4125 1 0.1510 265265.600
4125 4126 1 0.1340 459403.200
4125 4129 1 0.1444 343088.000
4126 4127 1 0.1080 284512.000
4126 4128 1 0.1080 284512.000
4126 4187 1 0.152900 224262.400000
4129 4130 1 0.1229 476976.000
4129 4131 1 0.1327 179075.200
4131 4132 1 0.1410 267776.000
4132 4133 1 0.1090 284512.000
4132 4134 1 0.1090 284512.000
4132 4135 1 0.1529 224262.400
4135 4136 1 0.1090 284512.000
4135 4137 1 0.1090 284512.000
4135 4138 1 0.1529 224262.400
4138 4139 1 0.1090 284512.000
4138 4140 1 0.1090 284512.000
4138 4141 1 0.1529 224262.400
4141 4142 1 0.1090 284512.000
4141 4143 1 0.1090 284512.000
4141 4144 1 0.1529 224262.400
4144 4145 1 0.1090 284512.000
4144 4146 1 0.1090 284512.000
4144 4147 1 0.1529 224262.400
4147 4148 1 0.1090 284512.000
4147 4149 1 0.1090 284512.000
4147 4150 1 0.1529 224262.400
4150 4151 1 0.1090 284512.000
4150 4152 1 0.1090 284512.000
4150 4153 1 0.1529 224262.400
4153 4154 1 0.1090 284512.000
4153 4155 1 0.1090 284512.000
4153 4156 1 0.1529 224262.400
4156 4157 1 0.1090 284512.000
4156 4158 1 0.1090 284512.000
4156 4159 1 0.1529 224262.400
4159 4160 1 0.1090 284512.000
4159 4161 1 0.1090 284512.000
4159 4162 1 0.1529 224262.400
4162 4163 1 0.1090 284512.000
4162 4164 1 0.1090 284512.000
4162 4165 1 0.1529 224262.400
4165 4166 1 0.1090 284512.000
4165 4167 1 0.1090 284512.000
4165 4168 1 0.1529 224262.400
4168 4169 1 0.1090 284512.000
4168 4170 1 0.1090 284512.000
4168 4171 1 0.1529 224262.400
4171 4172 1 0.1090 284512.000
4171 4173 1 0.1090 284512.000
4171 4174 1 0.1529 224262.400
4174 4175 1 0.1090 284512.000
4174 4176 1 0.1090 284512.000
4174 4177 1 0.1529 224262.400
4177 4178 1 0.1090 284512.000
4177 4179 1 0.1090 284512.000
4177 4180 1 0.1529 224262.400
4180 4181 1 0.1090 284512.000
4180 4182 1 0.1090 284512.000
4180 4183 1 0.1529 224262.400
4183 4184 1 0.1090 284512.000
4183 4185 1 0.1090 284512.000
4183 4186 1 0.1090 284512.000
4187 4188 1 0.1090 284512.000
4187 4189 1 0.1090 284512.000
4187 4190 1 0.1090 284512.000

[ pairs ]
   5   10 1
   6   11 1
   6   12 1
   7   10 1
   8   10 1
   9   13 1
   9   16 1
  10   14 1
  10   15 1
  10   17 1
  10   18 1
  10   19 1
  11   13 1
  11   16 1
  13   17 1
  13   18 1
  13   19 1
  14   16 1
  15   16 1
  20   25 1
  21   26 1
  21   27 1
  22   25 1
  23   25 1
  24   28 1
  24   31 1
  25   29 1
  25   30 1
  25   32 1
  25   33 1
  25   34 1
  26   28 1
  26   31 1
  28   32 1
  28   33 1
  28   34 1
  29   31 1
  30   31 1
  35   40 1
  36   41 1
  36   42 1
  37   40 1
  38   40 1
  39   43 1
  39   46 1
  40   44 1
  40   45 1
  40   47 1
  40   48 1
  40   49 1
  41   43 1
  41   46 1
  43   47 1
  43   48 1
  43   49 1
  44   46 1
  45   46 1
  50   55 1
  51   56 1
  51   57 1
  52   55 1
  53   55 1
  54   58 1
  54   61 1
  55   59 1
  55   60 1
  55   62 1
  55   63 1
  55   64 1
  56   58 1
  56   61 1
  58   62 1
  58   63 1
  58   64 1
  59   61 1
  60   61 1
  65   70 1
  66   71 1
  66   72 1
  67   70 1
  68   70 1
  69   73 1
  69   76 1
  70   74 1
  70   75 1
  70   77 1
  70   78 1
  70   79 1
  71   73 1
  71   76 1
  73   77 1
  73   78 1
  73   79 1
  74   76 1
  75   76 1
  80   85 1
  81   86 1
  81   87 1
  82   85 1
  83   85 1
  84   88 1
  84   91 1
  85   89 1
  85   90 1
  85   92 1
  85   93 1
  85   94 1
  86   88 1
  86   91 1
  88   92 1
  88   93 1
  88   94 1
  89   91 1
  90   91 1
  95  100 1
  96  101 1
  96  102 1
  97  100 1
  98  100 1
  99  103 1
  99  106 1
 100  104 1
 100  105 1
 100  107 1
 100  108 1
 100  109 1
 101  103 1
 101  106 1
 103  107 1
 103  108 1
 103  109 1
 104  106 1
 105  106 1
 110  115 1
 111  116 1
 111  117 1
 112  115 1
 113  115 1
 114  118 1
 114  121 1
 115  119 1
 115  120 1
 115  122 1
 115  123 1
 115  124 1
 116  118 1
 116  121 1
 118  122 1
 118  123 1
 118  124 1
 119  121 1
 120  121 1
 125  130 1
 126  131 1
 126  132 1
 127  130 1
 128  130 1
 129  133 1
 129  136 1
 130  134 1
 130  135 1
 130  137 1
 130  138 1
 130  139 1
 131  133 1
 131  136 1
 133  137 1
 133  138 1
 133  139 1
 134  136 1
 135  136 1
 140  145 1
 141  146 1
 141  147 1
 142  145 1
 143  145 1
 144  148 1
 144  151 1
 145  149 1
 145  150 1
 145  152 1
 145  153 1
 145  154 1
 146  148 1
 146  151 1
 148  152 1
 148  153 1
 148  154 1
 149  151 1
 150  151 1
 155  160 1
 156  161 1
 156  162 1
 157  160 1
 158  160 1
 159  163 1
 159  166 1
 160  164 1
 160  165 1
 160  167 1
 160  168 1
 160  169 1
 161  163 1
 161  166 1
 163  167 1
 163  168 1
 163  169 1
 164  166 1
 165  166 1
 170  175 1
 171  176 1
 171  177 1
 172  175 1
 173  175 1
 174  178 1
 174  181 1
 175  179 1
 175  180 1
 175  182 1
 175  183 1
 175  184 1
 176  178 1
 176  181 1
 178  182 1
 178  183 1
 178  184 1
 179  181 1
 180  181 1
 185  190 1
 186  191 1
 186  192 1
 187  190 1
 188  190 1
 189  193 1
 189  196 1
 190  194 1
 190  195 1
 190  197 1
 190  198 1
 190  199 1
 191  193 1
 191  196 1
 193  197 1
 193  198 1
 193  199 1
 194  196 1
 195  196 1
 200  205 1
 201  206 1
 201  207 1
 202  205 1
 203  205 1
 204  208 1
 204  211 1
 205  209 1
 205  210 1
 205  212 1
 205  213 1
 205  214 1
 206  208 1
 206  211 1
 208  212 1
 208  213 1
 208  214 1
 209  211 1
 210  211 1
 215  220 1
 216  221 1
 216  222 1
 217  220 1
 218  220 1
 219  223 1
 219  226 1
 220  224 1
 220  225 1
 220  227 1
 220  228 1
 220  229 1
 221  223 1
 221  226 1
 223  227 1
 223  228 1
 223  229 1
 224  226 1
 225  226 1
 230  235 1
 231  236 1
 231  237 1
 232  235 1
 233  235 1
 234  238 1
 234  241 1
 235  239 1
 235  240 1
 235  242 1
 235  243 1
 235  244 1
 236  238 1
 236  241 1
 238  242 1
 238  243 1
 238  244 1
 239  241 1
 240  241 1
 245  250 1
 246  251 1
 246  252 1
 247  250 1
 248  250 1
 249  253 1
 249  256 1
 250  254 1
 250  255 1
 250  257 1
 250  258 1
 250  259 1
 251  253 1
 251  256 1
 253  257 1
 253  258 1
 253  259 1
 254  256 1
 255  256 1
 260  265 1
 261  266 1
 261  267 1
 262  265 1
 263  265 1
 264  268 1
 264  271 1
 265  269 1
 265  270 1
 265  272 1
 265  273 1
 265  274 1
 266  268 1
 266  271 1
 268  272 1
 268  273 1
 268  274 1
 269  271 1
 270  271 1
 275  280 1
 276  281 1
 276  282 1
 277  280 1
 278  280 1
 279  283 1
 279  286 1
 280  284 1
 280  285 1
 280  287 1
 280  288 1
 280  289 1
 281  283 1
 281  286 1
 283  287 1
 283  288 1
 283  289 1
 284  286 1
 285  286 1
 290  295 1
 291  296 1
 291  297 1
 292  295 1
 293  295 1
 294  298 1
 294  301 1
 295  299 1
 295  300 1
 295  302 1
 295  303 1
 295  304 1
 296  298 1
 296  301 1
 298  302 1
 298  303 1
 298  304 1
 299  301 1
 300  301 1
 305  310 1
 306  311 1
 306  312 1
 307  310 1
 308  310 1
 309  313 1
 309  316 1
 310  314 1
 310  315 1
 310  317 1
 310  318 1
 310  319 1
 311  313 1
 311  316 1
 313  317 1
 313  318 1
 313  319 1
 314  316 1
 315  316 1
 320  325 1
 321  326 1
 321  327 1
 322  325 1
 323  325 1
 324  328 1
 324  331 1
 325  329 1
 325  330 1
 325  332 1
 325  333 1
 325  334 1
 326  328 1
 326  331 1
 328  332 1
 328  333 1
 328  334 1
 329  331 1
 330  331 1
 335  340 1
 336  341 1
 336  342 1
 337  340 1
 338  340 1
 339  343 1
 339  346 1
 340  344 1
 340  345 1
 340  347 1
 340  348 1
 340  349 1
 341  343 1
 341  346 1
 343  347 1
 343  348 1
 343  349 1
 344  346 1
 345  346 1
 350  355 1
 351  356 1
 351  357 1
 352  355 1
 353  355 1
 354  358 1
 354  361 1
 355  359 1
 355  360 1
 355  362 1
 355  363 1
 355  364 1
 356  358 1
 356  361 1
 358  362 1
 358  363 1
 358  364 1
 359  361 1
 360  361 1
 365  370 1
 366  371 1
 366  372 1
 367  370 1
 368  370 1
 369  373 1
 369  376 1
 370  374 1
 370  375 1
 370  377 1
 370  378 1
 370  379 1
 371  373 1
 371  376 1
 373  377 1
 373  378 1
 373  379 1
 374  376 1
 375  376 1
 380  385 1
 381  386 1
 381  387 1
 382  385 1
 383  385 1
 384  388 1
 384  391 1
 385  389 1
 385  390 1
 385  392 1
 385  393 1
 385  394 1
 386  388 1
 386  391 1
 388  392 1
 388  393 1
 388  394 1
 389  391 1
 390  391 1
 395  400 1
 396  401 1
 396  402 1
 397  400 1
 398  400 1
 399  403 1
 399  406 1
 400  404 1
 400  405 1
 400  407 1
 400  408 1
 400  409 1
 401  403 1
 401  406 1
 403  407 1
 403  408 1
 403  409 1
 404  406 1
 405  406 1
 410  415 1
 411  416 1
 411  417 1
 412  415 1
 413  415 1
 414  418 1
 414  421 1
 415  419 1
 415  420 1
 415  422 1
 415  423 1
 415  424 1
 416  418 1
 416  421 1
 418  422 1
 418  423 1
 418  424 1
 419  421 1
 420  421 1
 425  430 1
 426  431 1
 426  432 1
 427  430 1
 428  430 1
 429  433 1
 429  436 1
 430  434 1
 430  435 1
 430  437 1
 430  438 1
 430  439 1
 431  433 1
 431  436 1
 433  437 1
 433  438 1
 433  439 1
 434  436 1
 435  436 1
 440  445 1
 441  446 1
 441  447 1
 442  445 1
 443  445 1
 444  448 1
 444  451 1
 445  449 1
 445  450 1
 445  452 1
 445  453 1
 445  454 1
 446  448 1
 446  451 1
 448  452 1
 448  453 1
 448  454 1
 449  451 1
 450  451 1
 455  460 1
 456  461 1
 456  462 1
 457  460 1
 458  460 1
 459  463 1
 459  466 1
 460  464 1
 460  465 1
 460  467 1
 460  468 1
 460  469 1
 461  463 1
 461  466 1
 463  467 1
 463  468 1
 463  469 1
 464  466 1
 465  466 1
 470  475 1
 471  476 1
 471  477 1
 472  475 1
 473  475 1
 474  478 1
 474  481 1
 475  479 1
 475  480 1
 475  482 1
 475  483 1
 475  484 1
 476  478 1
 476  481 1
 478  482 1
 478  483 1
 478  484 1
 479  481 1
 480  481 1
 485  490 1
 486  491 1
 486  492 1
 487  490 1
 488  490 1
 489  493 1
 489  496 1
 490  494 1
 490  495 1
 490  497 1
 490  498 1
 490  499 1
 491  493 1
 491  496 1
 493  497 1
 493  498 1
 493  499 1
 494  496 1
 495  496 1
 500  505 1
 501  506 1
 501  507 1
 502  505 1
 503  505 1
 504  508 1
 504  511 1
 505  509 1
 505  510 1
 505  512 1
 505  513 1
 505  514 1
 506  508 1
 506  511 1
 508  512 1
 508  513 1
 508  514 1
 509  511 1
 510  511 1
 515  520 1
 516  521 1
 516  522 1
 517  520 1
 518  520 1
 519  523 1
 519  526 1
 520  524 1
 520  525 1
 520  527 1
 520  528 1
 520  529 1
 521  523 1
 521  526 1
 523  527 1
 523  528 1
 523  529 1
 524  526 1
 525  526 1
 530  535 1
 531  536 1
 531  537 1
 532  535 1
 533  535 1
 534  538 1
 534  541 1
 535  539 1
 535  540 1
 535  542 1
 535  543 1
 535  544 1
 536  538 1
 536  541 1
 538  542 1
 538  543 1
 538  544 1
 539  541 1
 540  541 1
 545  550 1
 546  551 1
 546  552 1
 547  550 1
 548  550 1
 549  553 1
 549  556 1
 550  554 1
 550  555 1
 550  557 1
 550  558 1
 550  559 1
 551  553 1
 551  556 1
 553  557 1
 553  558 1
 553  559 1
 554  556 1
 555  556 1
 560  565 1
 561  566 1
 561  567 1
 562  565 1
 563  565 1
 564  568 1
 564  571 1
 565  569 1
 565  570 1
 565  572 1
 565  573 1
 565  574 1
 566  568 1
 566  571 1
 568  572 1
 568  573 1
 568  574 1
 569  571 1
 570  571 1
 575  580 1
 576  581 1
 576  582 1
 577  580 1
 578  580 1
 579  583 1
 579  586 1
 580  584 1
 580  585 1
 580  587 1
 580  588 1
 580  589 1
 581  583 1
 581  586 1
 583  587 1
 583  588 1
 583  589 1
 584  586 1
 585  586 1
 590  595 1
 591  596 1
 591  597 1
 592  595 1
 593  595 1
 594  598 1
 594  601 1
 595  599 1
 595  600 1
 595  602 1
 595  603 1
 595  604 1
 596  598 1
 596  601 1
 598  602 1
 598  603 1
 598  604 1
 599  601 1
 600  601 1
 605  610 1
 606  611 1
 606  612 1
 607  610 1
 608  610 1
 609  613 1
 609  616 1
 610  614 1
 610  615 1
 610  617 1
 610  618 1
 610  619 1
 611  613 1
 611  616 1
 613  617 1
 613  618 1
 613  619 1
 614  616 1
 615  616 1
 620  625 1
 621  626 1
 621  627 1
 622  625 1
 623  625 1
 624  628 1
 624  631 1
 625  629 1
 625  630 1
 625  632 1
 625  633 1
 625  634 1
 626  628 1
 626  631 1
 628  632 1
 628  633 1
 628  634 1
 629  631 1
 630  631 1
 635  640 1
 636  641 1
 636  642 1
 637  640 1
 638  640 1
 639  643 1
 639  646 1
 640  644 1
 640  645 1
 640  647 1
 640  648 1
 640  649 1
 641  643 1
 641  646 1
 643  647 1
 643  648 1
 643  649 1
 644  646 1
 645  646 1
 650  655 1
 651  656 1
 651  657 1
 652  655 1
 653  655 1
 654  658 1
 654  661 1
 655  659 1
 655  660 1
 655  662 1
 655  663 1
 655  664 1
 656  658 1
 656  661 1
 658  662 1
 658  663 1
 658  664 1
 659  661 1
 660  661 1
 665  670 1
 666  671 1
 666  672 1
 667  670 1
 668  670 1
 669  673 1
 669  676 1
 670  674 1
 670  675 1
 670  677 1
 670  678 1
 670  679 1
 671  673 1
 671  676 1
 673  677 1
 673  678 1
 673  679 1
 674  676 1
 675  676 1
 680  685 1
 681  686 1
 681  687 1
 682  685 1
 683  685 1
 684  688 1
 684  691 1
 685  689 1
 685  690 1
 685  692 1
 685  693 1
 685  694 1
 686  688 1
 686  691 1
 688  692 1
 688  693 1
 688  694 1
 689  691 1
 690  691 1
 695  700 1
 696  701 1
 696  702 1
 697  700 1
 698  700 1
 699  703 1
 699  706 1
 700  704 1
 700  705 1
 700  707 1
 700  708 1
 700  709 1
 701  703 1
 701  706 1
 703  707 1
 703  708 1
 703  709 1
 704  706 1
 705  706 1
 710  715 1
 711  716 1
 711  717 1
 712  715 1
 713  715 1
 714  718 1
 714  721 1
 715  719 1
 715  720 1
 715  722 1
 715  723 1
 715  724 1
 716  718 1
 716  721 1
 718  722 1
 718  723 1
 718  724 1
 719  721 1
 720  721 1
 725  730 1
 726  731 1
 726  732 1
 727  730 1
 728  730 1
 729  733 1
 729  736 1
 730  734 1
 730  735 1
 730  737 1
 730  738 1
 730  739 1
 731  733 1
 731  736 1
 733  737 1
 733  738 1
 733  739 1
 734  736 1
 735  736 1
 740  745 1
 741  746 1
 741  747 1
 742  745 1
 743  745 1
 744  748 1
 744  751 1
 745  749 1
 745  750 1
 745  752 1
 745  753 1
 745  754 1
 746  748 1
 746  751 1
 748  752 1
 748  753 1
 748  754 1
 749  751 1
 750  751 1
 755  760 1
 756  761 1
 756  762 1
 757  760 1
 758  760 1
 759  763 1
 759  766 1
 760  764 1
 760  765 1
 760  767 1
 760  768 1
 760  769 1
 761  763 1
 761  766 1
 763  767 1
 763  768 1
 763  769 1
 764  766 1
 765  766 1
 770  775 1
 771  776 1
 771  777 1
 772  775 1
 773  775 1
 774  778 1
 774  781 1
 775  779 1
 775  780 1
 775  782 1
 775  783 1
 775  784 1
 776  778 1
 776  781 1
 778  782 1
 778  783 1
 778  784 1
 779  781 1
 780  781 1
 785  790 1
 786  791 1
 786  792 1
 787  790 1
 788  790 1
 789  793 1
 789  796 1
 790  794 1
 790  795 1
 790  797 1
 790  798 1
 790  799 1
 791  793 1
 791  796 1
 793  797 1
 793  798 1
 793  799 1
 794  796 1
 795  796 1
 800  805 1
 801  806 1
 801  807 1
 802  805 1
 803  805 1
 804  808 1
 804  811 1
 805  809 1
 805  810 1
 805  812 1
 805  813 1
 805  814 1
 806  808 1
 806  811 1
 808  812 1
 808  813 1
 808  814 1
 809  811 1
 810  811 1
 815  820 1
 816  821 1
 816  822 1
 817  820 1
 818  820 1
 819  823 1
 819  826 1
 820  824 1
 820  825 1
 820  827 1
 820  828 1
 820  829 1
 821  823 1
 821  826 1
 823  827 1
 823  828 1
 823  829 1
 824  826 1
 825  826 1
 830  835 1
 831  836 1
 831  837 1
 832  835 1
 833  835 1
 834  838 1
 834  841 1
 835  839 1
 835  840 1
 835  842 1
 835  843 1
 835  844 1
 836  838 1
 836  841 1
 838  842 1
 838  843 1
 838  844 1
 839  841 1
 840  841 1
 845  850 1
 846  851 1
 846  852 1
 847  850 1
 848  850 1
 849  853 1
 849  856 1
 850  854 1
 850  855 1
 850  857 1
 850  858 1
 850  859 1
 851  853 1
 851  856 1
 853  857 1
 853  858 1
 853  859 1
 854  856 1
 855  856 1
 860  865 1
 861  866 1
 861  867 1
 862  865 1
 863  865 1
 864  868 1
 864  871 1
 865  869 1
 865  870 1
 865  872 1
 865  873 1
 865  874 1
 866  868 1
 866  871 1
 868  872 1
 868  873 1
 868  874 1
 869  871 1
 870  871 1
 875  880 1
 875  883 1
 876  881 1
 876  882 1
 876  884 1
 876  885 1
 877  880 1
 877  883 1
 878  880 1
 878  883 1
 879  886 1
 880  884 1
 880  885 1
 881  883 1
 882  883 1
 883  887 1
 883  888 1
 883  889 1
 884  886 1
 885  890 1
 885  891 1
 885  898 1
 886  892 1
 886  893 1
 886  894 1
 886  899 1
 886  900 1
 886  901 1
 887  890 1
 887  891 1
 887  898 1
 888  890 1
 888  891 1
 888  898 1
 889  895 1
 889  896 1
 889  897 1
 889  902 1
 889  903 1
 889  904 1
 890  892 1
 890  893 1
 890  894 1
 890  899 1
 890  900 1
 890  901 1
 891  899 1
 891  900 1
 891  901 1
 892  895 1
 892  896 1
 892  897 1
 892  898 1
 893  895 1
 893  896 1
 893  897 1
 893  898 1
 894  898 1
 898  905 1
 898  906 1
 898  907 1
 899  902 1
 899  903 1
 899  904 1
 900  902 1
 900  903 1
 900  904 1
 901  908 1
 901  909 1
 901  910 1
 902  905 1
 902  906 1
 902  907 1
 903  905 1
 903  906 1
 903  907 1
 905  908 1
 905  909 1
 905  910 1
 906  908 1
 906  909 1
 906  910 1
 911  916 1
 911  919 1
 912  917 1
 912  918 1
 912  920 1
 912  921 1
 913  916 1
 913  919 1
 914  916 1
 914  919 1
 915  922 1
 916  920 1
 916  921 1
 917  919 1
 918  919 1
 919  923 1
 919  924 1
 919  925 1
 920  922 1
 921  926 1
 921  927 1
 921  928 1
 922  929 1
 922  930 1
 922  931 1
 923  926 1
 923  927 1
 923  928 1
 924  926 1
 924  927 1
 924  928 1
 925  932 1
 925  933 1
 925  934 1
 926  929 1
 926  930 1
 926  931 1
 927  929 1
 927  930 1
 927  931 1
 928  935 1
 928  936 1
 928  937 1
 929  932 1
 929  933 1
 929  934 1
 930  932 1
 930  933 1
 930  934 1
 931  938 1
 931  939 1
 931  940 1
 932  935 1
 932  936 1
 932  937 1
 933  935 1
 933  936 1
 933  937 1
 934  941 1
 934  942 1
 934  943 1
 935  938 1
 935  939 1
 935  940 1
 936  938 1
 936  939 1
 936  940 1
 937  944 1
 937  945 1
 937  946 1
 938  941 1
 938  942 1
 938  943 1
 939  941 1
 939  942 1
 939  943 1
 940  947 1
 940  948 1
 940  949 1
 941  944 1
 941  945 1
 941  946 1
 942  944 1
 942  945 1
 942  946 1
 943  950 1
 943  951 1
 943  952 1
 944  947 1
 944  948 1
 944  949 1
 945  947 1
 945  948 1
 945  949 1
 946  953 1
 946  954 1
 946  955 1
 947  950 1
 947  951 1
 947  952 1
 948  950 1
 948  951 1
 948  952 1
 949  956 1
 949  957 1
 949  958 1
 950  953 1
 950  954 1
 950  955 1
 951  953 1
 951  954 1
 951  955 1
 952  959 1
 952  960 1
 952  961 1
 953  956 1
 953  957 1
 953  958 1
 954  956 1
 954  957 1
 954  958 1
 955  962 1
 955  963 1
 955  964 1
 956  959 1
 956  960 1
 956  961 1
 957  959 1
 957  960 1
 957  961 1
 958  965 1
 958  966 1
 958  967 1
 959  962 1
 959  963 1
 959  964 1
 960  962 1
 960  963 1
 960  964 1
 961  968 1
 961  969 1
 961  970 1
 962  965 1
 962  966 1
 962  967 1
 963  965 1
 963  966 1
 963  967 1
 964  971 1
 964  972 1
 964  973 1
 965  968 1
 965  969 1
 965  970 1
 966  968 1
 966  969 1
 966  970 1
 967  974 1
 967  975 1
 967  976 1
 968  971 1
 968  972 1
 968  973 1
 969  971 1
 969  972 1
 969  973 1
 971  974 1
 971  975 1
 971  976 1
 972  974 1
 972  975 1
 972  976 1
 977  982 1
 977  985 1
 978  983 1
 978  984 1
 978  986 1
 978  987 1
 979  982 1
 979  985 1
 980  982 1
 980  985 1
 981  988 1
 982  986 1
 982  987 1
 983  985 1
 984  985 1
 985  989 1
 985  990 1
 985  991 1
 986  988 1
 987  992 1
 987  993 1
 987  994 1
 988  995 1
 988  996 1
 988  997 1
 989  992 1
 989  993 1
 989  994 1
 990  992 1
 990  993 1
 990  994 1
 991  998 1
 991  999 1
 991 1000 1
 992  995 1
 992  996 1
 992  997 1
 993  995 1
 993  996 1
 993  997 1
 994 1001 1
 994 1002 1
 994 1003 1
 995  998 1
 995  999 1
 995 1000 1
 996  998 1
 996  999 1
 996 1000 1
 997 1004 1
 997 1005 1
 997 1006 1
 998 1001 1
 998 1002 1
 998 1003 1
 999 1001 1
 999 1002 1
 999 1003 1
1000 1007 1
1000 1008 1
1000 1009 1
1001 1004 1
1001 1005 1
1001 1006 1
1002 1004 1
1002 1005 1
1002 1006 1
1003 1010 1
1003 1011 1
1003 1012 1
1004 1007 1
1004 1008 1
1004 1009 1
1005 1007 1
1005 1008 1
1005 1009 1
1006 1013 1
1006 1014 1
1006 1015 1
1007 1010 1
1007 1011 1
1007 1012 1
1008 1010 1
1008 1011 1
1008 1012 1
1009 1016 1
1009 1017 1
1009 1018 1
1010 1013 1
1010 1014 1
1010 1015 1
1011 1013 1
1011 1014 1
1011 1015 1
1012 1019 1
1012 1020 1
1012 1021 1
1013 1016 1
1013 1017 1
1013 1018 1
1014 1016 1
1014 1017 1
1014 1018 1
1015 1022 1
1015 1023 1
1015 1024 1
1016 1019 1
1016 1020 1
1016 1021 1
1017 1019 1
1017 1020 1
1017 1021 1
1018 1025 1
1018 1026 1
1018 1027 1
1019 1022 1
1019 1023 1
1019 1024 1
1020 1022 1
1020 1023 1
1020 1024 1
1021 1028 1
1021 1029 1
1021 1030 1
1022 1025 1
1022 1026 1
1022 1027 1
1023 1025 1
1023 1026 1
1023 1027 1
1024 1031 1
1024 1032 1
1024 1033 1
1025 1028 1
1025 1029 1
1025 1030 1
1026 1028 1
1026 1029 1
1026 1030 1
1027 1034 1
1027 1035 1
1027 1036 1
1028 1031 1
1028 1032 1
1028 1033 1
1029 1031 1
1029 1032 1
1029 1033 1
1030 1037 1
1030 1038 1
1030 1039 1
1031 1034 1
1031 1035 1
1031 1036 1
1032 1034 1
1032 1035 1
1032 1036 1
1033 1040 1
1033 1041 1
1033 1042 1
1034 1037 1
1034 1038 1
1034 1039 1
1035 1037 1
1035 1038 1
1035 1039 1
1037 1040 1
1037 1041 1
1037 1042 1
1038 1040 1
1038 1041 1
1038 1042 1
1043 1048 1
1043 1051 1
1044 1049 1
1044 1050 1
1044 1052 1
1044 1053 1
1045 1048 1
1045 1051 1
1046 1048 1
1046 1051 1
1047 1054 1
1048 1052 1
1048 1053 1
1049 1051 1
1050 1051 1
1051 1055 1
1051 1056 1
1051 1057 1
1052 1054 1
1053 1058 1
1053 1059 1
1053 1060 1
1054 1061 1
1054 1062 1
1054 1063 1
1055 1058 1
1055 1059 1
1055 1060 1
1056 1058 1
1056 1059 1
1056 1060 1
1057 1064 1
1057 1065 1
1057 1066 1
1058 1061 1
1058 1062 1
1058 1063 1
1059 1061 1
1059 1062 1
1059 1063 1
1060 1067 1
1060 1068 1
1060 1069 1
1061 1064 1
1061 1065 1
1061 1066 1
1062 1064 1
1062 1065 1
1062 1066 1
1063 1070 1
1063 1071 1
1063 1072 1
1064 1067 1
1064 1068 1
1064 1069 1
1065 1067 1
1065 1068 1
1065 1069 1
1066 1073 1
1066 1074 1
1066 1075 1
1067 1070 1
1067 1071 1
1067 1072 1
1068 1070 1
1068 1071 1
1068 1072 1
1069 1076 1
1069 1077 1
1069 1078 1
1070 1073 1
1070 1074 1
1070 1075 1
1071 1073 1
1071 1074 1
1071 1075 1
1072 1079 1
1072 1080 1
1072 1081 1
1073 1076 1
1073 1077 1
1073 1078 1
1074 1076 1
1074 1077 1
1074 1078 1
1075 1082 1
1075 1083 1
1075 1084 1
1076 1079 1
1076 1080 1
1076 1081 1
1077 1079 1
1077 1080 1
1077 1081 1
1078 1085 1
1078 1086 1
1078 1087 1
1079 1082 1
1079 1083 1
1079 1084 1
1080 1082 1
1080 1083 1
1080 1084 1
1081 1088 1
1081 1089 1
1081 1090 1
1082 1085 1
1082 1086 1
1082 1087 1
1083 1085 1
1083 1086 1
1083 1087 1
1084 1091 1
1084 1092 1
1084 1093 1
1085 1088 1
1085 1089 1
1085 1090 1
1086 1088 1
1086 1089 1
1086 1090 1
1087 1094 1
1087 1095 1
1087 1096 1
1088 1091 1
1088 1092 1
1088 1093 1
1089 1091 1
1089 1092 1
1089 1093 1
1090 1097 1
1090 1098 1
1090 1099 1
1091 1094 1
1091 1095 1
1091 1096 1
1092 1094 1
1092 1095 1
1092 1096 1
1093 1100 1
1093 1101 1
1093 1102 1
1094 1097 1
1094 1098 1
1094 1099 1
1095 1097 1
1095 1098 1
1095 1099 1
1096 1103 1
1096 1104 1
1096 1105 1
1097 1100 1
1097 1101 1
1097 1102 1
1098 1100 1
1098 1101 1
1098 1102 1
1099 1106 1
1099 1107 1
1099 1108 1
1100 1103 1
1100 1104 1
1100 1105 1
1101 1103 1
1101 1104 1
1101 1105 1
1103 1106 1
1103 1107 1
1103 1108 1
1104 1106 1
1104 1107 1
1104 1108 1
1109 1114 1
1109 1117 1
1110 1115 1
1110 1116 1
1110 1118 1
1110 1119 1
1111 1114 1
1111 1117 1
1112 1114 1
1112 1117 1
1113 1120 1
1114 1118 1
1114 1119 1
1115 1117 1
1116 1117 1
1117 1121 1
1117 1122 1
1117 1123 1
1118 1120 1
1119 1124 1
1119 1125 1
1119 1126 1
1120 1127 1
1120 1128 1
1120 1129 1
1121 1124 1
1121 1125 1
1121 1126 1
1122 1124 1
1122 1125 1
1122 1126 1
1123 1130 1
1123 1131 1
1123 1132 1
1124 1127 1
1124 1128 1
1124 1129 1
1125 1127 1
1125 1128 1
1125 1129 1
1126 1133 1
1126 1134 1
1126 1135 1
1127 1130 1
1127 1131 1
1127 1132 1
1128 1130 1
1128 1131 1
1128 1132 1
1129 1136 1
1129 1137 1
1129 1138 1
1130 1133 1
1130 1134 1
1130 1135 1
1131 1133 1
1131 1134 1
1131 1135 1
1132 1139 1
1132 1140 1
1132 1141 1
1133 1136 1
1133 1137 1
1133 1138 1
1134 1136 1
1134 1137 1
1134 1138 1
1135 1142 1
1135 1143 1
1135 1144 1
1136 1139 1
1136 1140 1
1136 1141 1
1137 1139 1
1137 1140 1
1137 1141 1
1138 1145 1
1138 1146 1
1138 1147 1
1139 1142 1
1139 1143 1
1139 1144 1
1140 1142 1
1140 1143 1
1140 1144 1
1141 1148 1
1141 1149 1
1141 1150 1
1142 1145 1
1142 1146 1
1142 1147 1
1143 1145 1
1143 1146 1
1143 1147 1
1144 1151 1
1144 1152 1
1144 1153 1
1145 1148 1
1145 1149 1
1145 1150 1
1146 1148 1
1146 1149 1
1146 1150 1
1147 1154 1
1147 1155 1
1147 1156 1
1148 1151 1
1148 1152 1
1148 1153 1
1149 1151 1
1149 1152 1
1149 1153 1
1150 1157 1
1150 1158 1
1150 1159 1
1151 1154 1
1151 1155 1
1151 1156 1
1152 1154 1
1152 1155 1
1152 1156 1
1153 1160 1
1153 1161 1
1153 1162 1
1154 1157 1
1154 1158 1
1154 1159 1
1155 1157 1
1155 1158 1
1155 1159 1
1156 1163 1
1156 1164 1
1156 1165 1
1157 1160 1
1157 1161 1
1157 1162 1
1158 1160 1
1158 1161 1
1158 1162 1
1159 1166 1
1159 1167 1
1159 1168 1
1160 1163 1
1160 1164 1
1160 1165 1
1161 1163 1
1161 1164 1
1161 1165 1
1162 1169 1
1162 1170 1
1162 1171 1
1163 1166 1
1163 1167 1
1163 1168 1
1164 1166 1
1164 1167 1
1164 1168 1
1165 1172 1
1165 1173 1
1165 1174 1
1166 1169 1
1166 1170 1
1166 1171 1
1167 1169 1
1167 1170 1
1167 1171 1
1169 1172 1
1169 1173 1
1169 1174 1
1170 1172 1
1170 1173 1
1170 1174 1
1175 1180 1
1175 1183 1
1176 1181 1
1176 1182 1
1176 1184 1
1176 1185 1
1177 1180 1
1177 1183 1
1178 1180 1
1178 1183 1
1179 1186 1
1180 1184 1
1180 1185 1
1181 1183 1
1182 1183 1
1183 1187 1
1183 1188 1
1183 1189 1
1184 1186 1
1185 1190 1
1185 1191 1
1185 1192 1
1186 1193 1
1186 1194 1
1186 1195 1
1187 1190 1
1187 1191 1
1187 1192 1
1188 1190 1
1188 1191 1
1188 1192 1
1189 1196 1
1189 1197 1
1189 1198 1
1190 1193 1
1190 1194 1
1190 1195 1
1191 1193 1
1191 1194 1
1191 1195 1
1192 1199 1
1192 1200 1
1192 1201 1
1193 1196 1
1193 1197 1
1193 1198 1
1194 1196 1
1194 1197 1
1194 1198 1
1195 1202 1
1195 1203 1
1195 1204 1
1196 1199 1
1196 1200 1
1196 1201 1
1197 1199 1
1197 1200 1
1197 1201 1
1198 1205 1
1198 1206 1
1198 1207 1
1199 1202 1
1199 1203 1
1199 1204 1
1200 1202 1
1200 1203 1
1200 1204 1
1201 1208 1
1201 1209 1
1201 1210 1
1202 1205 1
1202 1206 1
1202 1207 1
1203 1205 1
1203 1206 1
1203 1207 1
1204 1211 1
1204 1212 1
1204 1213 1
1205 1208 1
1205 1209 1
1205 1210 1
1206 1208 1
1206 1209 1
1206 1210 1
1207 1214 1
1207 1215 1
1207 1216 1
1208 1211 1
1208 1212 1
1208 1213 1
1209 1211 1
1209 1212 1
1209 1213 1
1210 1217 1
1210 1218 1
1210 1219 1
1211 1214 1
1211 1215 1
1211 1216 1
1212 1214 1
1212 1215 1
1212 1216 1
1213 1220 1
1213 1221 1
1213 1222 1
1214 1217 1
1214 1218 1
1214 1219 1
1215 1217 1
1215 1218 1
1215 1219 1
1217 1220 1
1217 1221 1
1217 1222 1
1218 1220 1
1218 1221 1
1218 1222 1
1223 1228 1
1223 1231 1
1224 1229 1
1224 1230 1
1224 1232 1
1224 1233 1
1225 1228 1
1225 1231 1
1226 1228 1
1226 1231 1
1227 1234 1
1228 1232 1
1228 1233 1
1229 1231 1
1230 1231 1
1231 1235 1
1231 1236 1
1231 1237 1
1232 1234 1
1233 1238 1
1233 1239 1
1233 1246 1
1234 1240 1
1234 1241 1
1234 1242 1
1234 1247 1
1234 1248 1
1234 1249 1
1235 1238 1
1235 1239 1
1235 1246 1
1236 1238 1
1236 1239 1
1236 1246 1
1237 1243 1
1237 1244 1
1237 1245 1
1237 1250 1
1237 1251 1
1237 1252 1
1238 1240 1
1238 1241 1
1238 1242 1
1238 1247 1
1238 1248 1
1238 1249 1
1239 1247 1
1239 1248 1
1239 1249 1
1240 1243 1
1240 1244 1
1240 1245 1
1240 1246 1
1241 1243 1
1241 1244 1
1241 1245 1
1241 1246 1
1242 1246 1
1246 1253 1
1246 1254 1
1246 1255 1
1247 1250 1
1247 1251 1
1247 1252 1
1248 1250 1
1248 1251 1
1248 1252 1
1249 1256 1
1249 1257 1
1249 1258 1
1250 1253 1
1250 1254 1
1250 1255 1
1251 1253 1
1251 1254 1
1251 1255 1
1253 1256 1
1253 1257 1
1253 1258 1
1254 1256 1
1254 1257 1
1254 1258 1
1259 1264 1
1259 1267 1
1260 1265 1
1260 1266 1
1260 1268 1
1260 1269 1
1261 1264 1
1261 1267 1
1262 1264 1
1262 1267 1
1263 1270 1
1264 1268 1
1264 1269 1
1265 1267 1
1266 1267 1
1267 1271 1
1267 1272 1
1267 1273 1
1268 1270 1
1269 1274 1
1269 1275 1
1269 1276 1
1270 1277 1
1270 1278 1
1270 1279 1
1271 1274 1
1271 1275 1
1271 1276 1
1272 1274 1
1272 1275 1
1272 1276 1
1273 1280 1
1273 1281 1
1273 1282 1
1274 1277 1
1274 1278 1
1274 1279 1
1275 1277 1
1275 1278 1
1275 1279 1
1276 1283 1
1276 1284 1
1276 1285 1
1277 1280 1
1277 1281 1
1277 1282 1
1278 1280 1
1278 1281 1
1278 1282 1
1279 1286 1
1279 1287 1
1279 1288 1
1280 1283 1
1280 1284 1
1280 1285 1
1281 1283 1
1281 1284 1
1281 1285 1
1282 1289 1
1282 1290 1
1282 1291 1
1283 1286 1
1283 1287 1
1283 1288 1
1284 1286 1
1284 1287 1
1284 1288 1
1285 1292 1
1285 1293 1
1285 1294 1
1286 1289 1
1286 1290 1
1286 1291 1
1287 1289 1
1287 1290 1
1287 1291 1
1288 1295 1
1288 1296 1
1288 1297 1
1289 1292 1
1289 1293 1
1289 1294 1
1290 1292 1
1290 1293 1
1290 1294 1
1291 1298 1
1291 1299 1
1291 1300 1
1292 1295 1
1292 1296 1
1292 1297 1
1293 1295 1
1293 1296 1
1293 1297 1
1294 1301 1
1294 1302 1
1294 1303 1
1295 1298 1
1295 1299 1
1295 1300 1
1296 1298 1
1296 1299 1
1296 1300 1
1297 1304 1
1297 1305 1
1297 1306 1
1298 1301 1
1298 1302 1
1298 1303 1
1299 1301 1
1299 1302 1
1299 1303 1
1301 1304 1
1301 1305 1
1301 1306 1
1302 1304 1
1302 1305 1
1302 1306 1
1307 1312 1
1307 1315 1
1308 1313 1
1308 1314 1
1308 1316 1
1308 1317 1
1309 1312 1
1309 1315 1
1310 1312 1
1310 1315 1
1311 1318 1
1312 1316 1
1312 1317 1
1313 1315 1
1314 1315 1
1315 1319 1
1315 1320 1
1315 1321 1
1316 1318 1
1317 1322 1
1317 1323 1
1317 1324 1
1318 1325 1
1318 1326 1
1318 1327 1
1319 1322 1
1319 1323 1
1319 1324 1
1320 1322 1
1320 1323 1
1320 1324 1
1321 1328 1
1321 1329 1
1321 1330 1
1322 1325 1
1322 1326 1
1322 1327 1
1323 1325 1
1323 1326 1
1323 1327 1
1324 1331 1
1324 1332 1
1324 1333 1
1325 1328 1
1325 1329 1
1325 1330 1
1326 1328 1
1326 1329 1
1326 1330 1
1327 1334 1
1327 1335 1
1327 1336 1
1328 1331 1
1328 1332 1
1328 1333 1
1329 1331 1
1329 1332 1
1329 1333 1
1330 1337 1
1330 1338 1
1330 1339 1
1331 1334 1
1331 1335 1
1331 1336 1
1332 1334 1
1332 1335 1
1332 1336 1
1333 1340 1
1333 1341 1
1333 1342 1
1334 1337 1
1334 1338 1
1334 1339 1
1335 1337 1
1335 1338 1
1335 1339 1
1336 1343 1
1336 1344 1
1336 1345 1
1337 1340 1
1337 1341 1
1337 1342 1
1338 1340 1
1338 1341 1
1338 1342 1
1339 1346 1
1339 1347 1
1339 1348 1
1340 1343 1
1340 1344 1
1340 1345 1
1341 1343 1
1341 1344 1
1341 1345 1
1342 1349 1
1342 1350 1
1342 1351 1
1343 1346 1
1343 1347 1
1343 1348 1
1344 1346 1
1344 1347 1
1344 1348 1
1345 1352 1
1345 1353 1
1345 1354 1
1346 1349 1
1346 1350 1
1346 1351 1
1347 1349 1
1347 1350 1
1347 1351 1
1348 1355 1
1348 1356 1
1348 1357 1
1349 1352 1
1349 1353 1
1349 1354 1
1350 1352 1
1350 1353 1
1350 1354 1
1351 1358 1
1351 1359 1
1351 1360 1
1352 1355 1
1352 1356 1
1352 1357 1
1353 1355 1
1353 1356 1
1353 1357 1
1354 1361 1
1354 1362 1
1354 1363 1
1355 1358 1
1355 1359 1
1355 1360 1
1356 1358 1
1356 1359 1
1356 1360 1
1357 1364 1
1357 1365 1
1357 1366 1
1358 1361 1
1358 1362 1
1358 1363 1
1359 1361 1
1359 1362 1
1359 1363 1
1360 1367 1
1360 1368 1
1360 1369 1
1361 1364 1
1361 1365 1
1361 1366 1
1362 1364 1
1362 1365 1
1362 1366 1
1363 1370 1
1363 1371 1
1363 1372 1
1364 1367 1
1364 1368 1
1364 1369 1
1365 1367 1
1365 1368 1
1365 1369 1
1367 1370 1
1367 1371 1
1367 1372 1
1368 1370 1
1368 1371 1
1368 1372 1
1373 1378 1
1373 1381 1
1374 1379 1
1374 1380 1
1374 1382 1
1374 1383 1
1375 1378 1
1375 1381 1
1376 1378 1
1376 1381 1
1377 1384 1
1378 1382 1
1378 1383 1
1379 1381 1
1380 1381 1
1381 1385 1
1381 1386 1
1381 1387 1
1382 1384 1
1383 1388 1
1383 1389 1
1383 1396 1
1384 1390 1
1384 1391 1
1384 1392 1
1384 1397 1
1384 1398 1
1384 1399 1
1385 1388 1
1385 1389 1
1385 1396 1
1386 1388 1
1386 1389 1
1386 1396 1
1387 1393 1
1387 1394 1
1387 1395 1
1387 1400 1
1387 1401 1
1387 1402 1
1388 1390 1
1388 1391 1
1388 1392 1
1388 1397 1
1388 1398 1
1388 1399 1
1389 1397 1
1389 1398 1
1389 1399 1
1390 1393 1
1390 1394 1
1390 1395 1
1390 1396 1
1391 1393 1
1391 1394 1
1391 1395 1
1391 1396 1
1392 1396 1
1396 1403 1
1396 1404 1
1396 1405 1
1397 1400 1
1397 1401 1
1397 1402 1
1398 1400 1
1398 1401 1
1398 1402 1
1399 1406 1
1399 1407 1
1399 1408 1
1400 1403 1
1400 1404 1
1400 1405 1
1401 1403 1
1401 1404 1
1401 1405 1
1403 1406 1
1403 1407 1
1403 1408 1
1404 1406 1
1404 1407 1
1404 1408 1
1409 1414 1
1409 1417 1
1410 1415 1
1410 1416 1
1410 1418 1
1410 1419 1
1411 1414 1
1411 1417 1
1412 1414 1
1412 1417 1
1413 1420 1
1414 1418 1
1414 1419 1
1415 1417 1
1416 1417 1
1417 1421 1
1417 1422 1
1417 1423 1
1418 1420 1
1419 1424 1
1419 1425 1
1419 1426 1
1420 1427 1
1420 1428 1
1420 1429 1
1421 1424 1
1421 1425 1
1421 1426 1
1422 1424 1
1422 1425 1
1422 1426 1
1423 1430 1
1423 1431 1
1423 1432 1
1424 1427 1
1424 1428 1
1424 1429 1
1425 1427 1
1425 1428 1
1425 1429 1
1426 1433 1
1426 1434 1
1426 1435 1
1427 1430 1
1427 1431 1
1427 1432 1
1428 1430 1
1428 1431 1
1428 1432 1
1429 1436 1
1429 1437 1
1429 1438 1
1430 1433 1
1430 1434 1
1430 1435 1
1431 1433 1
1431 1434 1
1431 1435 1
1432 1439 1
1432 1440 1
1432 1441 1
1433 1436 1
1433 1437 1
1433 1438 1
1434 1436 1
1434 1437 1
1434 1438 1
1435 1442 1
1435 1443 1
1435 1444 1
1436 1439 1
1436 1440 1
1436 1441 1
1437 1439 1
1437 1440 1
1437 1441 1
1438 1445 1
1438 1446 1
1438 1447 1
1439 1442 1
1439 1443 1
1439 1444 1
1440 1442 1
1440 1443 1
1440 1444 1
1441 1448 1
1441 1449 1
1441 1450 1
1442 1445 1
1442 1446 1
1442 1447 1
1443 1445 1
1443 1446 1
1443 1447 1
1444 1451 1
1444 1452 1
1444 1453 1
1445 1448 1
1445 1449 1
1445 1450 1
1446 1448 1
1446 1449 1
1446 1450 1
1447 1454 1
1447 1455 1
1447 1456 1
1448 1451 1
1448 1452 1
1448 1453 1
1449 1451 1
1449 1452 1
1449 1453 1
1451 1454 1
1451 1455 1
1451 1456 1
1452 1454 1
1452 1455 1
1452 1456 1
1457 1462 1
1457 1465 1
1458 1463 1
1458 1464 1
1458 1466 1
1458 1467 1
1459 1462 1
1459 1465 1
1460 1462 1
1460 1465 1
1461 1468 1
1462 1466 1
1462 1467 1
1463 1465 1
1464 1465 1
1465 1469 1
1465 1470 1
1465 1471 1
1466 1468 1
1467 1472 1
1467 1473 1
1467 1474 1
1468 1475 1
1468 1476 1
1468 1477 1
1469 1472 1
1469 1473 1
1469 1474 1
1470 1472 1
1470 1473 1
1470 1474 1
1471 1478 1
1471 1479 1
1471 1480 1
1472 1475 1
1472 1476 1
1472 1477 1
1473 1475 1
1473 1476 1
1473 1477 1
1474 1481 1
1474 1482 1
1474 1483 1
1475 1478 1
1475 1479 1
1475 1480 1
1476 1478 1
1476 1479 1
1476 1480 1
1477 1484 1
1477 1485 1
1477 1486 1
1478 1481 1
1478 1482 1
1478 1483 1
1479 1481 1
1479 1482 1
1479 1483 1
1480 1487 1
1480 1488 1
1480 1489 1
1481 1484 1
1481 1485 1
1481 1486 1
1482 1484 1
1482 1485 1
1482 1486 1
1483 1490 1
1483 1491 1
1483 1492 1
1484 1487 1
1484 1488 1
1484 1489 1
1485 1487 1
1485 1488 1
1485 1489 1
1486 1493 1
1486 1494 1
1486 1495 1
1487 1490 1
1487 1491 1
1487 1492 1
1488 1490 1
1488 1491 1
1488 1492 1
1489 1496 1
1489 1497 1
1489 1498 1
1490 1493 1
1490 1494 1
1490 1495 1
1491 1493 1
1491 1494 1
1491 1495 1
1492 1499 1
1492 1500 1
1492 1501 1
1493 1496 1
1493 1497 1
1493 1498 1
1494 1496 1
1494 1497 1
1494 1498 1
1495 1502 1
1495 1503 1
1495 1504 1
1496 1499 1
1496 1500 1
1496 1501 1
1497 1499 1
1497 1500 1
1497 1501 1
1499 1502 1
1499 1503 1
1499 1504 1
1500 1502 1
1500 1503 1
1500 1504 1
1505 1510 1
1505 1513 1
1506 1511 1
1506 1512 1
1506 1514 1
1506 1515 1
1507 1510 1
1507 1513 1
1508 1510 1
1508 1513 1
1509 1516 1
1510 1514 1
1510 1515 1
1511 1513 1
1512 1513 1
1513 1517 1
1513 1518 1
1513 1519 1
1514 1516 1
1515 1520 1
1515 1521 1
1515 1528 1
1516 1522 1
1516 1523 1
1516 1524 1
1516 1529 1
1516 1530 1
1516 1531 1
1517 1520 1
1517 1521 1
1517 1528 1
1518 1520 1
1518 1521 1
1518 1528 1
1519 1525 1
1519 1526 1
1519 1527 1
1519 1532 1
1519 1533 1
1519 1534 1
1520 1522 1
1520 1523 1
1520 1524 1
1520 1529 1
1520 1530 1
1520 1531 1
1521 1529 1
1521 1530 1
1521 1531 1
1522 1525 1
1522 1526 1
1522 1527 1
1522 1528 1
1523 1525 1
1523 1526 1
1523 1527 1
1523 1528 1
1524 1528 1
1528 1535 1
1528 1536 1
1528 1537 1
1529 1532 1
1529 1533 1
1529 1534 1
1530 1532 1
1530 1533 1
1530 1534 1
1531 1538 1
1531 1539 1
1531 1540 1
1532 1535 1
1532 1536 1
1532 1537 1
1533 1535 1
1533 1536 1
1533 1537 1
1535 1538 1
1535 1539 1
1535 1540 1
1536 1538 1
1536 1539 1
1536 1540 1
1541 1546 1
1541 1549 1
1542 1547 1
1542 1548 1
1542 1550 1
1542 1551 1
1543 1546 1
1543 1549 1
1544 1546 1
1544 1549 1
1545 1552 1
1546 1550 1
1546 1551 1
1547 1549 1
1548 1549 1
1549 1553 1
1549 1554 1
1549 1555 1
1550 1552 1
1551 1556 1
1551 1557 1
1551 1564 1
1552 1558 1
1552 1559 1
1552 1560 1
1552 1565 1
1552 1566 1
1552 1567 1
1553 1556 1
1553 1557 1
1553 1564 1
1554 1556 1
1554 1557 1
1554 1564 1
1555 1561 1
1555 1562 1
1555 1563 1
1555 1568 1
1555 1569 1
1555 1570 1
1556 1558 1
1556 1559 1
1556 1560 1
1556 1565 1
1556 1566 1
1556 1567 1
1557 1565 1
1557 1566 1
1557 1567 1
1558 1561 1
1558 1562 1
1558 1563 1
1558 1564 1
1559 1561 1
1559 1562 1
1559 1563 1
1559 1564 1
1560 1564 1
1564 1571 1
1564 1572 1
1564 1573 1
1565 1568 1
1565 1569 1
1565 1570 1
1566 1568 1
1566 1569 1
1566 1570 1
1567 1574 1
1567 1575 1
1567 1576 1
1568 1571 1
1568 1572 1
1568 1573 1
1569 1571 1
1569 1572 1
1569 1573 1
1571 1574 1
1571 1575 1
1571 1576 1
1572 1574 1
1572 1575 1
1572 1576 1
1577 1582 1
1577 1585 1
1578 1583 1
1578 1584 1
1578 1586 1
1578 1587 1
1579 1582 1
1579 1585 1
1580 1582 1
1580 1585 1
1581 1588 1
1582 1586 1
1582 1587 1
1583 1585 1
1584 1585 1
1585 1589 1
1585 1590 1
1585 1591 1
1586 1588 1
1587 1592 1
1587 1593 1
1587 1594 1
1588 1595 1
1588 1596 1
1588 1597 1
1589 1592 1
1589 1593 1
1589 1594 1
1590 1592 1
1590 1593 1
1590 1594 1
1591 1598 1
1591 1599 1
1591 1600 1
1592 1595 1
1592 1596 1
1592 1597 1
1593 1595 1
1593 1596 1
1593 1597 1
1594 1601 1
1594 1602 1
1594 1603 1
1595 1598 1
1595 1599 1
1595 1600 1
1596 1598 1
1596 1599 1
1596 1600 1
1597 1604 1
1597 1605 1
1597 1606 1
1598 1601 1
1598 1602 1
1598 1603 1
1599 1601 1
1599 1602 1
1599 1603 1
1600 1607 1
1600 1608 1
1600 1609 1
1601 1604 1
1601 1605 1
1601 1606 1
1602 1604 1
1602 1605 1
1602 1606 1
1603 1610 1
1603 1611 1
1603 1612 1
1604 1607 1
1604 1608 1
1604 1609 1
1605 1607 1
1605 1608 1
1605 1609 1
1606 1613 1
1606 1614 1
1606 1615 1
1607 1610 1
1607 1611 1
1607 1612 1
1608 1610 1
1608 1611 1
1608 1612 1
1609 1616 1
1609 1617 1
1609 1618 1
1610 1613 1
1610 1614 1
1610 1615 1
1611 1613 1
1611 1614 1
1611 1615 1
1612 1619 1
1612 1620 1
1612 1621 1
1613 1616 1
1613 1617 1
1613 1618 1
1614 1616 1
1614 1617 1
1614 1618 1
1615 1622 1
1615 1623 1
1615 1624 1
1616 1619 1
1616 1620 1
1616 1621 1
1617 1619 1
1617 1620 1
1617 1621 1
1619 1622 1
1619 1623 1
1619 1624 1
1620 1622 1
1620 1623 1
1620 1624 1
1625 1630 1
1625 1633 1
1626 1631 1
1626 1632 1
1626 1634 1
1626 1635 1
1627 1630 1
1627 1633 1
1628 1630 1
1628 1633 1
1629 1636 1
1630 1634 1
1630 1635 1
1631 1633 1
1632 1633 1
1633 1637 1
1633 1638 1
1633 1639 1
1634 1636 1
1635 1640 1
1635 1641 1
1635 1648 1
1636 1642 1
1636 1643 1
1636 1644 1
1636 1649 1
1636 1650 1
1636 1651 1
1637 1640 1
1637 1641 1
1637 1648 1
1638 1640 1
1638 1641 1
1638 1648 1
1639 1645 1
1639 1646 1
1639 1647 1
1639 1652 1
1639 1653 1
1639 1654 1
1640 1642 1
1640 1643 1
1640 1644 1
1640 1649 1
1640 1650 1
1640 1651 1
1641 1649 1
1641 1650 1
1641 1651 1
1642 1645 1
1642 1646 1
1642 1647 1
1642 1648 1
1643 1645 1
1643 1646 1
1643 1647 1
1643 1648 1
1644 1648 1
1648 1655 1
1648 1656 1
1648 1657 1
1649 1652 1
1649 1653 1
1649 1654 1
1650 1652 1
1650 1653 1
1650 1654 1
1651 1658 1
1651 1659 1
1651 1660 1
1652 1655 1
1652 1656 1
1652 1657 1
1653 1655 1
1653 1656 1
1653 1657 1
1655 1658 1
1655 1659 1
1655 1660 1
1656 1658 1
1656 1659 1
1656 1660 1
1661 1666 1
1661 1669 1
1662 1667 1
1662 1668 1
1662 1670 1
1662 1671 1
1663 1666 1
1663 1669 1
1664 1666 1
1664 1669 1
1665 1672 1
1666 1670 1
1666 1671 1
1667 1669 1
1668 1669 1
1669 1673 1
1669 1674 1
1669 1675 1
1670 1672 1
1671 1676 1
1671 1677 1
1671 1684 1
1672 1678 1
1672 1679 1
1672 1680 1
1672 1685 1
1672 1686 1
1672 1687 1
1673 1676 1
1673 1677 1
1673 1684 1
1674 1676 1
1674 1677 1
1674 1684 1
1675 1681 1
1675 1682 1
1675 1683 1
1675 1688 1
1675 1689 1
1675 1690 1
1676 1678 1
1676 1679 1
1676 1680 1
1676 1685 1
1676 1686 1
1676 1687 1
1677 1685 1
1677 1686 1
1677 1687 1
1678 1681 1
1678 1682 1
1678 1683 1
1678 1684 1
1679 1681 1
1679 1682 1
1679 1683 1
1679 1684 1
1680 1684 1
1684 1691 1
1684 1692 1
1684 1693 1
1685 1688 1
1685 1689 1
1685 1690 1
1686 1688 1
1686 1689 1
1686 1690 1
1687 1694 1
1687 1695 1
1687 1696 1
1688 1691 1
1688 1692 1
1688 1693 1
1689 1691 1
1689 1692 1
1689 1693 1
1691 1694 1
1691 1695 1
1691 1696 1
1692 1694 1
1692 1695 1
1692 1696 1
1697 1702 1
1697 1705 1
1698 1703 1
1698 1704 1
1698 1706 1
1698 1707 1
1699 1702 1
1699 1705 1
1700 1702 1
1700 1705 1
1701 1708 1
1702 1706 1
1702 1707 1
1703 1705 1
1704 1705 1
1705 1709 1
1705 1710 1
1705 1711 1
1706 1708 1
1707 1712 1
1707 1713 1
1707 1720 1
1708 1714 1
1708 1715 1
1708 1716 1
1708 1721 1
1708 1722 1
1708 1723 1
1709 1712 1
1709 1713 1
1709 1720 1
1710 1712 1
1710 1713 1
1710 1720 1
1711 1717 1
1711 1718 1
1711 1719 1
1711 1724 1
1711 1725 1
1711 1726 1
1712 1714 1
1712 1715 1
1712 1716 1
1712 1721 1
1712 1722 1
1712 1723 1
1713 1721 1
1713 1722 1
1713 1723 1
1714 1717 1
1714 1718 1
1714 1719 1
1714 1720 1
1715 1717 1
1715 1718 1
1715 1719 1
1715 1720 1
1716 1720 1
1720 1727 1
1720 1728 1
1720 1729 1
1721 1724 1
1721 1725 1
1721 1726 1
1722 1724 1
1722 1725 1
1722 1726 1
1723 1730 1
1723 1731 1
1723 1732 1
1724 1727 1
1724 1728 1
1724 1729 1
1725 1727 1
1725 1728 1
1725 1729 1
1727 1730 1
1727 1731 1
1727 1732 1
1728 1730 1
1728 1731 1
1728 1732 1
1733 1738 1
1733 1741 1
1734 1739 1
1734 1740 1
1734 1742 1
1734 1743 1
1735 1738 1
1735 1741 1
1736 1738 1
1736 1741 1
1737 1744 1
1738 1742 1
1738 1743 1
1739 1741 1
1740 1741 1
1741 1745 1
1741 1746 1
1741 1747 1
1742 1744 1
1743 1748 1
1743 1749 1
1743 1750 1
1744 1751 1
1744 1752 1
1744 1753 1
1745 1748 1
1745 1749 1
1745 1750 1
1746 1748 1
1746 1749 1
1746 1750 1
1747 1754 1
1747 1755 1
1747 1756 1
1748 1751 1
1748 1752 1
1748 1753 1
1749 1751 1
1749 1752 1
1749 1753 1
1750 1757 1
1750 1758 1
1750 1759 1
1751 1754 1
1751 1755 1
1751 1756 1
1752 1754 1
1752 1755 1
1752 1756 1
1753 1760 1
1753 1761 1
1753 1762 1
1754 1757 1
1754 1758 1
1754 1759 1
1755 1757 1
1755 1758 1
1755 1759 1
1756 1763 1
1756 1764 1
1756 1765 1
1757 1760 1
1757 1761 1
1757 1762 1
1758 1760 1
1758 1761 1
1758 1762 1
1759 1766 1
1759 1767 1
1759 1768 1
1760 1763 1
1760 1764 1
1760 1765 1
1761 1763 1
1761 1764 1
1761 1765 1
1762 1769 1
1762 1770 1
1762 1771 1
1763 1766 1
1763 1767 1
1763 1768 1
1764 1766 1
1764 1767 1
1764 1768 1
1765 1772 1
1765 1773 1
1765 1774 1
1766 1769 1
1766 1770 1
1766 1771 1
1767 1769 1
1767 1770 1
1767 1771 1
1768 1775 1
1768 1776 1
1768 1777 1
1769 1772 1
1769 1773 1
1769 1774 1
1770 1772 1
1770 1773 1
1770 1774 1
1771 1778 1
1771 1779 1
1771 1780 1
1772 1775 1
1772 1776 1
1772 1777 1
1773 1775 1
1773 1776 1
1773 1777 1
1775 1778 1
1775 1779 1
1775 1780 1
1776 1778 1
1776 1779 1
1776 1780 1
1781 1786 1
1781 1789 1
1782 1787 1
1782 1788 1
1782 1790 1
1782 1791 1
1783 1786 1
1783 1789 1
1784 1786 1
1784 1789 1
1785 1792 1
1786 1790 1
1786 1791 1
1787 1789 1
1788 1789 1
1789 1793 1
1789 1794 1
1789 1795 1
1790 1792 1
1791 1796 1
1791 1797 1
1791 1798 1
1792 1799 1
1792 1800 1
1792 1801 1
1793 1796 1
1793 1797 1
1793 1798 1
1794 1796 1
1794 1797 1
1794 1798 1
1795 1802 1
1795 1803 1
1795 1804 1
1796 1799 1
1796 1800 1
1796 1801 1
1797 1799 1
1797 1800 1
1797 1801 1
1798 1805 1
1798 1806 1
1798 1807 1
1799 1802 1
1799 1803 1
1799 1804 1
1800 1802 1
1800 1803 1
1800 1804 1
1801 1808 1
1801 1809 1
1801 1810 1
1802 1805 1
1802 1806 1
1802 1807 1
1803 1805 1
1803 1806 1
1803 1807 1
1804 1811 1
1804 1812 1
1804 1813 1
1805 1808 1
1805 1809 1
1805 1810 1
1806 1808 1
1806 1809 1
1806 1810 1
1807 1814 1
1807 1815 1
1807 1816 1
1808 1811 1
1808 1812 1
1808 1813 1
1809 1811 1
1809 1812 1
1809 1813 1
1810 1817 1
1810 1818 1
1810 1819 1
1811 1814 1
1811 1815 1
1811 1816 1
1812 1814 1
1812 1815 1
1812 1816 1
1813 1820 1
1813 1821 1
1813 1822 1
1814 1817 1
1814 1818 1
1814 1819 1
1815 1817 1
1815 1818 1
1815 1819 1
1816 1823 1
1816 1824 1
1816 1825 1
1817 1820 1
1817 1821 1
1817 1822 1
1818 1820 1
1818 1821 1
1818 1822 1
1819 1826 1
1819 1827 1
1819 1828 1
1820 1823 1
1820 1824 1
1820 1825 1
1821 1823 1
1821 1824 1
1821 1825 1
1823 1826 1
1823 1827 1
1823 1828 1
1824 1826 1
1824 1827 1
1824 1828 1
1829 1834 1
1829 1837 1
1830 1835 1
1830 1836 1
1830 1838 1
1830 1839 1
1831 1834 1
1831 1837 1
1832 1834 1
1832 1837 1
1833 1840 1
1834 1838 1
1834 1839 1
1835 1837 1
1836 1837 1
1837 1841 1
1837 1842 1
1837 1843 1
1838 1840 1
1839 1844 1
1839 1845 1
1839 1852 1
1840 1846 1
1840 1847 1
1840 1848 1
1840 1853 1
1840 1854 1
1840 1855 1
1841 1844 1
1841 1845 1
1841 1852 1
1842 1844 1
1842 1845 1
1842 1852 1
1843 1849 1
1843 1850 1
1843 1851 1
1843 1856 1
1843 1857 1
1843 1858 1
1844 1846 1
1844 1847 1
1844 1848 1
1844 1853 1
1844 1854 1
1844 1855 1
1845 1853 1
1845 1854 1
1845 1855 1
1846 1849 1
1846 1850 1
1846 1851 1
1846 1852 1
1847 1849 1
1847 1850 1
1847 1851 1
1847 1852 1
1848 1852 1
1852 1859 1
1852 1860 1
1852 1861 1
1853 1856 1
1853 1857 1
1853 1858 1
1854 1856 1
1854 1857 1
1854 1858 1
1855 1862 1
1855 1863 1
1855 1864 1
1856 1859 1
1856 1860 1
1856 1861 1
1857 1859 1
1857 1860 1
1857 1861 1
1859 1862 1
1859 1863 1
1859 1864 1
1860 1862 1
1860 1863 1
1860 1864 1
1865 1870 1
1865 1873 1
1866 1871 1
1866 1872 1
1866 1874 1
1866 1875 1
1867 1870 1
1867 1873 1
1868 1870 1
1868 1873 1
1869 1876 1
1870 1874 1
1870 1875 1
1871 1873 1
1872 1873 1
1873 1877 1
1873 1878 1
1873 1879 1
1874 1876 1
1875 1880 1
1875 1881 1
1875 1882 1
1876 1883 1
1876 1884 1
1876 1885 1
1877 1880 1
1877 1881 1
1877 1882 1
1878 1880 1
1878 1881 1
1878 1882 1
1879 1886 1
1879 1887 1
1879 1888 1
1880 1883 1
1880 1884 1
1880 1885 1
1881 1883 1
1881 1884 1
1881 1885 1
1882 1889 1
1882 1890 1
1882 1891 1
1883 1886 1
1883 1887 1
1883 1888 1
1884 1886 1
1884 1887 1
1884 1888 1
1885 1892 1
1885 1893 1
1885 1894 1
1886 1889 1
1886 1890 1
1886 1891 1
1887 1889 1
1887 1890 1
1887 1891 1
1888 1895 1
1888 1896 1
1888 1897 1
1889 1892 1
1889 1893 1
1889 1894 1
1890 1892 1
1890 1893 1
1890 1894 1
1891 1898 1
1891 1899 1
1891 1900 1
1892 1895 1
1892 1896 1
1892 1897 1
1893 1895 1
1893 1896 1
1893 1897 1
1894 1901 1
1894 1902 1
1894 1903 1
1895 1898 1
1895 1899 1
1895 1900 1
1896 1898 1
1896 1899 1
1896 1900 1
1897 1904 1
1897 1905 1
1897 1906 1
1898 1901 1
1898 1902 1
1898 1903 1
1899 1901 1
1899 1902 1
1899 1903 1
1900 1907 1
1900 1908 1
1900 1909 1
1901 1904 1
1901 1905 1
1901 1906 1
1902 1904 1
1902 1905 1
1902 1906 1
1903 1910 1
1903 1911 1
1903 1912 1
1904 1907 1
1904 1908 1
1904 1909 1
1905 1907 1
1905 1908 1
1905 1909 1
1906 1913 1
1906 1914 1
1906 1915 1
1907 1910 1
1907 1911 1
1907 1912 1
1908 1910 1
1908 1911 1
1908 1912 1
1909 1916 1
1909 1917 1
1909 1918 1
1910 1913 1
1910 1914 1
1910 1915 1
1911 1913 1
1911 1914 1
1911 1915 1
1912 1919 1
1912 1920 1
1912 1921 1
1913 1916 1
1913 1917 1
1913 1918 1
1914 1916 1
1914 1917 1
1914 1918 1
1915 1922 1
1915 1923 1
1915 1924 1
1916 1919 1
1916 1920 1
1916 1921 1
1917 1919 1
1917 1920 1
1917 1921 1
1918 1925 1
1918 1926 1
1918 1927 1
1919 1922 1
1919 1923 1
1919 1924 1
1920 1922 1
1920 1923 1
1920 1924 1
1921 1928 1
1921 1929 1
1921 1930 1
1922 1925 1
1922 1926 1
1922 1927 1
1923 1925 1
1923 1926 1
1923 1927 1
1925 1928 1
1925 1929 1
1925 1930 1
1926 1928 1
1926 1929 1
1926 1930 1
1931 1936 1
1931 1939 1
1932 1937 1
1932 1938 1
1932 1940 1
1932 1941 1
1933 1936 1
1933 1939 1
1934 1936 1
1934 1939 1
1935 1942 1
1936 1940 1
1936 1941 1
1937 1939 1
1938 1939 1
1939 1943 1
1939 1944 1
1939 1945 1
1940 1942 1
1941 1946 1
1941 1947 1
1941 1948 1
1942 1949 1
1942 1950 1
1942 1951 1
1943 1946 1
1943 1947 1
1943 1948 1
1944 1946 1
1944 1947 1
1944 1948 1
1945 1952 1
1945 1953 1
1945 1954 1
1946 1949 1
1946 1950 1
1946 1951 1
1947 1949 1
1947 1950 1
1947 1951 1
1948 1955 1
1948 1956 1
1948 1957 1
1949 1952 1
1949 1953 1
1949 1954 1
1950 1952 1
1950 1953 1
1950 1954 1
1951 1958 1
1951 1959 1
1951 1960 1
1952 1955 1
1952 1956 1
1952 1957 1
1953 1955 1
1953 1956 1
1953 1957 1
1954 1961 1
1954 1962 1
1954 1963 1
1955 1958 1
1955 1959 1
1955 1960 1
1956 1958 1
1956 1959 1
1956 1960 1
1957 1964 1
1957 1965 1
1957 1966 1
1958 1961 1
1958 1962 1
1958 1963 1
1959 1961 1
1959 1962 1
1959 1963 1
1960 1967 1
1960 1968 1
1960 1969 1
1961 1964 1
1961 1965 1
1961 1966 1
1962 1964 1
1962 1965 1
1962 1966 1
1963 1970 1
1963 1971 1
1963 1972 1
1964 1967 1
1964 1968 1
1964 1969 1
1965 1967 1
1965 1968 1
1965 1969 1
1966 1973 1
1966 1974 1
1966 1975 1
1967 1970 1
1967 1971 1
1967 1972 1
1968 1970 1
1968 1971 1
1968 1972 1
1969 1976 1
1969 1977 1
1969 1978 1
1970 1973 1
1970 1974 1
1970 1975 1
1971 1973 1
1971 1974 1
1971 1975 1
1972 1979 1
1972 1980 1
1972 1981 1
1973 1976 1
1973 1977 1
1973 1978 1
1974 1976 1
1974 1977 1
1974 1978 1
1975 1982 1
1975 1983 1
1975 1984 1
1976 1979 1
1976 1980 1
1976 1981 1
1977 1979 1
1977 1980 1
1977 1981 1
1978 1985 1
1978 1986 1
1978 1987 1
1979 1982 1
1979 1983 1
1979 1984 1
1980 1982 1
1980 1983 1
1980 1984 1
1981 1988 1
1981 1989 1
1981 1990 1
1982 1985 1
1982 1986 1
1982 1987 1
1983 1985 1
1983 1986 1
1983 1987 1
1984 1991 1
1984 1992 1
1984 1993 1
1985 1988 1
1985 1989 1
1985 1990 1
1986 1988 1
1986 1989 1
1986 1990 1
1987 1994 1
1987 1995 1
1987 1996 1
1988 1991 1
1988 1992 1
1988 1993 1
1989 1991 1
1989 1992 1
1989 1993 1
1991 1994 1
1991 1995 1
1991 1996 1
1992 1994 1
1992 1995 1
1992 1996 1
1997 2002 1
1997 2005 1
1998 2003 1
1998 2004 1
1998 2006 1
1998 2007 1
1999 2002 1
1999 2005 1
2000 2002 1
2000 2005 1
2001 2008 1
2002 2006 1
2002 2007 1
2003 2005 1
2004 2005 1
2005 2009 1
2005 2010 1
2005 2011 1
2006 2008 1
2007 2012 1
2007 2013 1
2007 2014 1
2008 2015 1
2008 2016 1
2008 2017 1
2009 2012 1
2009 2013 1
2009 2014 1
2010 2012 1
2010 2013 1
2010 2014 1
2011 2018 1
2011 2019 1
2011 2020 1
2012 2015 1
2012 2016 1
2012 2017 1
2013 2015 1
2013 2016 1
2013 2017 1
2014 2021 1
2014 2022 1
2014 2023 1
2015 2018 1
2015 2019 1
2015 2020 1
2016 2018 1
2016 2019 1
2016 2020 1
2017 2024 1
2017 2025 1
2017 2026 1
2018 2021 1
2018 2022 1
2018 2023 1
2019 2021 1
2019 2022 1
2019 2023 1
2020 2027 1
2020 2028 1
2020 2029 1
2021 2024 1
2021 2025 1
2021 2026 1
2022 2024 1
2022 2025 1
2022 2026 1
2023 2030 1
2023 2031 1
2023 2032 1
2024 2027 1
2024 2028 1
2024 2029 1
2025 2027 1
2025 2028 1
2025 2029 1
2026 2033 1
2026 2034 1
2026 2035 1
2027 2030 1
2027 2031 1
2027 2032 1
2028 2030 1
2028 2031 1
2028 2032 1
2029 2036 1
2029 2037 1
2029 2038 1
2030 2033 1
2030 2034 1
2030 2035 1
2031 2033 1
2031 2034 1
2031 2035 1
2032 2039 1
2032 2040 1
2032 2041 1
2033 2036 1
2033 2037 1
2033 2038 1
2034 2036 1
2034 2037 1
2034 2038 1
2035 2042 1
2035 2043 1
2035 2044 1
2036 2039 1
2036 2040 1
2036 2041 1
2037 2039 1
2037 2040 1
2037 2041 1
2039 2042 1
2039 2043 1
2039 2044 1
2040 2042 1
2040 2043 1
2040 2044 1
2045 2050 1
2045 2053 1
2046 2051 1
2046 2052 1
2046 2054 1
2046 2055 1
2047 2050 1
2047 2053 1
2048 2050 1
2048 2053 1
2049 2056 1
2050 2054 1
2050 2055 1
2051 2053 1
2052 2053 1
2053 2057 1
2053 2058 1
2053 2059 1
2054 2056 1
2055 2060 1
2055 2061 1
2055 2062 1
2056 2063 1
2056 2064 1
2056 2065 1
2057 2060 1
2057 2061 1
2057 2062 1
2058 2060 1
2058 2061 1
2058 2062 1
2059 2066 1
2059 2067 1
2059 2068 1
2060 2063 1
2060 2064 1
2060 2065 1
2061 2063 1
2061 2064 1
2061 2065 1
2062 2069 1
2062 2070 1
2062 2071 1
2063 2066 1
2063 2067 1
2063 2068 1
2064 2066 1
2064 2067 1
2064 2068 1
2065 2072 1
2065 2073 1
2065 2074 1
2066 2069 1
2066 2070 1
2066 2071 1
2067 2069 1
2067 2070 1
2067 2071 1
2068 2075 1
2068 2076 1
2068 2077 1
2069 2072 1
2069 2073 1
2069 2074 1
2070 2072 1
2070 2073 1
2070 2074 1
2071 2078 1
2071 2079 1
2071 2080 1
2072 2075 1
2072 2076 1
2072 2077 1
2073 2075 1
2073 2076 1
2073 2077 1
2074 2081 1
2074 2082 1
2074 2083 1
2075 2078 1
2075 2079 1
2075 2080 1
2076 2078 1
2076 2079 1
2076 2080 1
2077 2084 1
2077 2085 1
2077 2086 1
2078 2081 1
2078 2082 1
2078 2083 1
2079 2081 1
2079 2082 1
2079 2083 1
2080 2087 1
2080 2088 1
2080 2089 1
2081 2084 1
2081 2085 1
2081 2086 1
2082 2084 1
2082 2085 1
2082 2086 1
2083 2090 1
2083 2091 1
2083 2092 1
2084 2087 1
2084 2088 1
2084 2089 1
2085 2087 1
2085 2088 1
2085 2089 1
2086 2093 1
2086 2094 1
2086 2095 1
2087 2090 1
2087 2091 1
2087 2092 1
2088 2090 1
2088 2091 1
2088 2092 1
2089 2096 1
2089 2097 1
2089 2098 1
2090 2093 1
2090 2094 1
2090 2095 1
2091 2093 1
2091 2094 1
2091 2095 1
2092 2099 1
2092 2100 1
2092 2101 1
2093 2096 1
2093 2097 1
2093 2098 1
2094 2096 1
2094 2097 1
2094 2098 1
2095 2102 1
2095 2103 1
2095 2104 1
2096 2099 1
2096 2100 1
2096 2101 1
2097 2099 1
2097 2100 1
2097 2101 1
2098 2105 1
2098 2106 1
2098 2107 1
2099 2102 1
2099 2103 1
2099 2104 1
2100 2102 1
2100 2103 1
2100 2104 1
2101 2108 1
2101 2109 1
2101 2110 1
2102 2105 1
2102 2106 1
2102 2107 1
2103 2105 1
2103 2106 1
2103 2107 1
2105 2108 1
2105 2109 1
2105 2110 1
2106 2108 1
2106 2109 1
2106 2110 1
2111 2116 1
2111 2119 1
2112 2117 1
2112 2118 1
2112 2120 1
2112 2121 1
2113 2116 1
2113 2119 1
2114 2116 1
2114 2119 1
2115 2122 1
2116 2120 1
2116 2121 1
2117 2119 1
2118 2119 1
2119 2123 1
2119 2124 1
2119 2125 1
2120 2122 1
2121 2126 1
2121 2127 1
2121 2128 1
2122 2129 1
2122 2130 1
2122 2131 1
2123 2126 1
2123 2127 1
2123 2128 1
2124 2126 1
2124 2127 1
2124 2128 1
2125 2132 1
2125 2133 1
2125 2134 1
2126 2129 1
2126 2130 1
2126 2131 1
2127 2129 1
2127 2130 1
2127 2131 1
2128 2135 1
2128 2136 1
2128 2137 1
2129 2132 1
2129 2133 1
2129 2134 1
2130 2132 1
2130 2133 1
2130 2134 1
2131 2138 1
2131 2139 1
2131 2140 1
2132 2135 1
2132 2136 1
2132 2137 1
2133 2135 1
2133 2136 1
2133 2137 1
2134 2141 1
2134 2142 1
2134 2143 1
2135 2138 1
2135 2139 1
2135 2140 1
2136 2138 1
2136 2139 1
2136 2140 1
2137 2144 1
2137 2145 1
2137 2146 1
2138 2141 1
2138 2142 1
2138 2143 1
2139 2141 1
2139 2142 1
2139 2143 1
2140 2147 1
2140 2148 1
2140 2149 1
2141 2144 1
2141 2145 1
2141 2146 1
2142 2144 1
2142 2145 1
2142 2146 1
2143 2150 1
2143 2151 1
2143 2152 1
2144 2147 1
2144 2148 1
2144 2149 1
2145 2147 1
2145 2148 1
2145 2149 1
2146 2153 1
2146 2154 1
2146 2155 1
2147 2150 1
2147 2151 1
2147 2152 1
2148 2150 1
2148 2151 1
2148 2152 1
2149 2156 1
2149 2157 1
2149 2158 1
2150 2153 1
2150 2154 1
2150 2155 1
2151 2153 1
2151 2154 1
2151 2155 1
2152 2159 1
2152 2160 1
2152 2161 1
2153 2156 1
2153 2157 1
2153 2158 1
2154 2156 1
2154 2157 1
2154 2158 1
2155 2162 1
2155 2163 1
2155 2164 1
2156 2159 1
2156 2160 1
2156 2161 1
2157 2159 1
2157 2160 1
2157 2161 1
2158 2165 1
2158 2166 1
2158 2167 1
2159 2162 1
2159 2163 1
2159 2164 1
2160 2162 1
2160 2163 1
2160 2164 1
2161 2168 1
2161 2169 1
2161 2170 1
2162 2165 1
2162 2166 1
2162 2167 1
2163 2165 1
2163 2166 1
2163 2167 1
2164 2171 1
2164 2172 1
2164 2173 1
2165 2168 1
2165 2169 1
2165 2170 1
2166 2168 1
2166 2169 1
2166 2170 1
2167 2174 1
2167 2175 1
2167 2176 1
2168 2171 1
2168 2172 1
2168 2173 1
2169 2171 1
2169 2172 1
2169 2173 1
2171 2174 1
2171 2175 1
2171 2176 1
2172 2174 1
2172 2175 1
2172 2176 1
2177 2182 1
2177 2185 1
2178 2183 1
2178 2184 1
2178 2186 1
2178 2187 1
2179 2182 1
2179 2185 1
2180 2182 1
2180 2185 1
2181 2188 1
2182 2186 1
2182 2187 1
2183 2185 1
2184 2185 1
2185 2189 1
2185 2190 1
2185 2191 1
2186 2188 1
2187 2192 1
2187 2193 1
2187 2200 1
2188 2194 1
2188 2195 1
2188 2196 1
2188 2201 1
2188 2202 1
2188 2203 1
2189 2192 1
2189 2193 1
2189 2200 1
2190 2192 1
2190 2193 1
2190 2200 1
2191 2197 1
2191 2198 1
2191 2199 1
2191 2204 1
2191 2205 1
2191 2206 1
2192 2194 1
2192 2195 1
2192 2196 1
2192 2201 1
2192 2202 1
2192 2203 1
2193 2201 1
2193 2202 1
2193 2203 1
2194 2197 1
2194 2198 1
2194 2199 1
2194 2200 1
2195 2197 1
2195 2198 1
2195 2199 1
2195 2200 1
2196 2200 1
2200 2207 1
2200 2208 1
2200 2209 1
2201 2204 1
2201 2205 1
2201 2206 1
2202 2204 1
2202 2205 1
2202 2206 1
2203 2210 1
2203 2211 1
2203 2212 1
2204 2207 1
2204 2208 1
2204 2209 1
2205 2207 1
2205 2208 1
2205 2209 1
2207 2210 1
2207 2211 1
2207 2212 1
2208 2210 1
2208 2211 1
2208 2212 1
2213 2218 1
2213 2221 1
2214 2219 1
2214 2220 1
2214 2222 1
2214 2223 1
2215 2218 1
2215 2221 1
2216 2218 1
2216 2221 1
2217 2224 1
2218 2222 1
2218 2223 1
2219 2221 1
2220 2221 1
2221 2225 1
2221 2226 1
2221 2227 1
2222 2224 1
2223 2228 1
2223 2229 1
2223 2236 1
2224 2230 1
2224 2231 1
2224 2232 1
2224 2237 1
2224 2238 1
2224 2239 1
2225 2228 1
2225 2229 1
2225 2236 1
2226 2228 1
2226 2229 1
2226 2236 1
2227 2233 1
2227 2234 1
2227 2235 1
2227 2240 1
2227 2241 1
2227 2242 1
2228 2230 1
2228 2231 1
2228 2232 1
2228 2237 1
2228 2238 1
2228 2239 1
2229 2237 1
2229 2238 1
2229 2239 1
2230 2233 1
2230 2234 1
2230 2235 1
2230 2236 1
2231 2233 1
2231 2234 1
2231 2235 1
2231 2236 1
2232 2236 1
2236 2243 1
2236 2244 1
2236 2245 1
2237 2240 1
2237 2241 1
2237 2242 1
2238 2240 1
2238 2241 1
2238 2242 1
2239 2246 1
2239 2247 1
2239 2248 1
2240 2243 1
2240 2244 1
2240 2245 1
2241 2243 1
2241 2244 1
2241 2245 1
2243 2246 1
2243 2247 1
2243 2248 1
2244 2246 1
2244 2247 1
2244 2248 1
2249 2254 1
2249 2257 1
2250 2255 1
2250 2256 1
2250 2258 1
2250 2259 1
2251 2254 1
2251 2257 1
2252 2254 1
2252 2257 1
2253 2260 1
2254 2258 1
2254 2259 1
2255 2257 1
2256 2257 1
2257 2261 1
2257 2262 1
2257 2263 1
2258 2260 1
2259 2264 1
2259 2265 1
2259 2272 1
2260 2266 1
2260 2267 1
2260 2268 1
2260 2273 1
2260 2274 1
2260 2275 1
2261 2264 1
2261 2265 1
2261 2272 1
2262 2264 1
2262 2265 1
2262 2272 1
2263 2269 1
2263 2270 1
2263 2271 1
2263 2276 1
2263 2277 1
2263 2278 1
2264 2266 1
2264 2267 1
2264 2268 1
2264 2273 1
2264 2274 1
2264 2275 1
2265 2273 1
2265 2274 1
2265 2275 1
2266 2269 1
2266 2270 1
2266 2271 1
2266 2272 1
2267 2269 1
2267 2270 1
2267 2271 1
2267 2272 1
2268 2272 1
2272 2279 1
2272 2280 1
2272 2281 1
2273 2276 1
2273 2277 1
2273 2278 1
2274 2276 1
2274 2277 1
2274 2278 1
2275 2282 1
2275 2283 1
2275 2284 1
2276 2279 1
2276 2280 1
2276 2281 1
2277 2279 1
2277 2280 1
2277 2281 1
2279 2282 1
2279 2283 1
2279 2284 1
2280 2282 1
2280 2283 1
2280 2284 1
2285 2290 1
2285 2293 1
2286 2291 1
2286 2292 1
2286 2294 1
2286 2295 1
2287 2290 1
2287 2293 1
2288 2290 1
2288 2293 1
2289 2296 1
2290 2294 1
2290 2295 1
2291 2293 1
2292 2293 1
2293 2297 1
2293 2298 1
2293 2299 1
2294 2296 1
2295 2300 1
2295 2301 1
2295 2302 1
2296 2303 1
2296 2304 1
2296 2305 1
2297 2300 1
2297 2301 1
2297 2302 1
2298 2300 1
2298 2301 1
2298 2302 1
2299 2306 1
2299 2307 1
2299 2308 1
2300 2303 1
2300 2304 1
2300 2305 1
2301 2303 1
2301 2304 1
2301 2305 1
2302 2309 1
2302 2310 1
2302 2311 1
2303 2306 1
2303 2307 1
2303 2308 1
2304 2306 1
2304 2307 1
2304 2308 1
2305 2312 1
2305 2313 1
2305 2314 1
2306 2309 1
2306 2310 1
2306 2311 1
2307 2309 1
2307 2310 1
2307 2311 1
2308 2315 1
2308 2316 1
2308 2317 1
2309 2312 1
2309 2313 1
2309 2314 1
2310 2312 1
2310 2313 1
2310 2314 1
2311 2318 1
2311 2319 1
2311 2320 1
2312 2315 1
2312 2316 1
2312 2317 1
2313 2315 1
2313 2316 1
2313 2317 1
2314 2321 1
2314 2322 1
2314 2323 1
2315 2318 1
2315 2319 1
2315 2320 1
2316 2318 1
2316 2319 1
2316 2320 1
2317 2324 1
2317 2325 1
2317 2326 1
2318 2321 1
2318 2322 1
2318 2323 1
2319 2321 1
2319 2322 1
2319 2323 1
2320 2327 1
2320 2328 1
2320 2329 1
2321 2324 1
2321 2325 1
2321 2326 1
2322 2324 1
2322 2325 1
2322 2326 1
2323 2330 1
2323 2331 1
2323 2332 1
2324 2327 1
2324 2328 1
2324 2329 1
2325 2327 1
2325 2328 1
2325 2329 1
2327 2330 1
2327 2331 1
2327 2332 1
2328 2330 1
2328 2331 1
2328 2332 1
2333 2338 1
2333 2341 1
2334 2339 1
2334 2340 1
2334 2342 1
2334 2343 1
2335 2338 1
2335 2341 1
2336 2338 1
2336 2341 1
2337 2344 1
2338 2342 1
2338 2343 1
2339 2341 1
2340 2341 1
2341 2345 1
2341 2346 1
2341 2347 1
2342 2344 1
2343 2348 1
2343 2349 1
2343 2356 1
2344 2350 1
2344 2351 1
2344 2352 1
2344 2357 1
2344 2358 1
2344 2359 1
2345 2348 1
2345 2349 1
2345 2356 1
2346 2348 1
2346 2349 1
2346 2356 1
2347 2353 1
2347 2354 1
2347 2355 1
2347 2360 1
2347 2361 1
2347 2362 1
2348 2350 1
2348 2351 1
2348 2352 1
2348 2357 1
2348 2358 1
2348 2359 1
2349 2357 1
2349 2358 1
2349 2359 1
2350 2353 1
2350 2354 1
2350 2355 1
2350 2356 1
2351 2353 1
2351 2354 1
2351 2355 1
2351 2356 1
2352 2356 1
2356 2363 1
2356 2364 1
2356 2365 1
2357 2360 1
2357 2361 1
2357 2362 1
2358 2360 1
2358 2361 1
2358 2362 1
2359 2366 1
2359 2367 1
2359 2368 1
2360 2363 1
2360 2364 1
2360 2365 1
2361 2363 1
2361 2364 1
2361 2365 1
2363 2366 1
2363 2367 1
2363 2368 1
2364 2366 1
2364 2367 1
2364 2368 1
2369 2374 1
2369 2377 1
2370 2375 1
2370 2376 1
2370 2378 1
2370 2379 1
2371 2374 1
2371 2377 1
2372 2374 1
2372 2377 1
2373 2380 1
2374 2378 1
2374 2379 1
2375 2377 1
2376 2377 1
2377 2381 1
2377 2382 1
2377 2383 1
2378 2380 1
2379 2384 1
2379 2385 1
2379 2392 1
2380 2386 1
2380 2387 1
2380 2388 1
2380 2393 1
2380 2394 1
2380 2395 1
2381 2384 1
2381 2385 1
2381 2392 1
2382 2384 1
2382 2385 1
2382 2392 1
2383 2389 1
2383 2390 1
2383 2391 1
2383 2396 1
2383 2397 1
2383 2398 1
2384 2386 1
2384 2387 1
2384 2388 1
2384 2393 1
2384 2394 1
2384 2395 1
2385 2393 1
2385 2394 1
2385 2395 1
2386 2389 1
2386 2390 1
2386 2391 1
2386 2392 1
2387 2389 1
2387 2390 1
2387 2391 1
2387 2392 1
2388 2392 1
2392 2399 1
2392 2400 1
2392 2401 1
2393 2396 1
2393 2397 1
2393 2398 1
2394 2396 1
2394 2397 1
2394 2398 1
2395 2402 1
2395 2403 1
2395 2404 1
2396 2399 1
2396 2400 1
2396 2401 1
2397 2399 1
2397 2400 1
2397 2401 1
2399 2402 1
2399 2403 1
2399 2404 1
2400 2402 1
2400 2403 1
2400 2404 1
2405 2410 1
2405 2413 1
2406 2411 1
2406 2412 1
2406 2414 1
2406 2415 1
2407 2410 1
2407 2413 1
2408 2410 1
2408 2413 1
2409 2416 1
2410 2414 1
2410 2415 1
2411 2413 1
2412 2413 1
2413 2417 1
2413 2418 1
2413 2419 1
2414 2416 1
2415 2420 1
2415 2421 1
2415 2422 1
2416 2423 1
2416 2424 1
2416 2425 1
2417 2420 1
2417 2421 1
2417 2422 1
2418 2420 1
2418 2421 1
2418 2422 1
2419 2426 1
2419 2427 1
2419 2428 1
2420 2423 1
2420 2424 1
2420 2425 1
2421 2423 1
2421 2424 1
2421 2425 1
2422 2429 1
2422 2430 1
2422 2431 1
2423 2426 1
2423 2427 1
2423 2428 1
2424 2426 1
2424 2427 1
2424 2428 1
2425 2432 1
2425 2433 1
2425 2434 1
2426 2429 1
2426 2430 1
2426 2431 1
2427 2429 1
2427 2430 1
2427 2431 1
2428 2435 1
2428 2436 1
2428 2437 1
2429 2432 1
2429 2433 1
2429 2434 1
2430 2432 1
2430 2433 1
2430 2434 1
2431 2438 1
2431 2439 1
2431 2440 1
2432 2435 1
2432 2436 1
2432 2437 1
2433 2435 1
2433 2436 1
2433 2437 1
2434 2441 1
2434 2442 1
2434 2443 1
2435 2438 1
2435 2439 1
2435 2440 1
2436 2438 1
2436 2439 1
2436 2440 1
2437 2444 1
2437 2445 1
2437 2446 1
2438 2441 1
2438 2442 1
2438 2443 1
2439 2441 1
2439 2442 1
2439 2443 1
2440 2447 1
2440 2448 1
2440 2449 1
2441 2444 1
2441 2445 1
2441 2446 1
2442 2444 1
2442 2445 1
2442 2446 1
2443 2450 1
2443 2451 1
2443 2452 1
2444 2447 1
2444 2448 1
2444 2449 1
2445 2447 1
2445 2448 1
2445 2449 1
2446 2453 1
2446 2454 1
2446 2455 1
2447 2450 1
2447 2451 1
2447 2452 1
2448 2450 1
2448 2451 1
2448 2452 1
2449 2456 1
2449 2457 1
2449 2458 1
2450 2453 1
2450 2454 1
2450 2455 1
2451 2453 1
2451 2454 1
2451 2455 1
2452 2459 1
2452 2460 1
2452 2461 1
2453 2456 1
2453 2457 1
2453 2458 1
2454 2456 1
2454 2457 1
2454 2458 1
2455 2462 1
2455 2463 1
2455 2464 1
2456 2459 1
2456 2460 1
2456 2461 1
2457 2459 1
2457 2460 1
2457 2461 1
2458 2465 1
2458 2466 1
2458 2467 1
2459 2462 1
2459 2463 1
2459 2464 1
2460 2462 1
2460 2463 1
2460 2464 1
2461 2468 1
2461 2469 1
2461 2470 1
2462 2465 1
2462 2466 1
2462 2467 1
2463 2465 1
2463 2466 1
2463 2467 1
2465 2468 1
2465 2469 1
2465 2470 1
2466 2468 1
2466 2469 1
2466 2470 1
2471 2476 1
2471 2479 1
2472 2477 1
2472 2478 1
2472 2480 1
2472 2481 1
2473 2476 1
2473 2479 1
2474 2476 1
2474 2479 1
2475 2482 1
2476 2480 1
2476 2481 1
2477 2479 1
2478 2479 1
2479 2483 1
2479 2484 1
2479 2485 1
2480 2482 1
2481 2486 1
2481 2487 1
2481 2494 1
2482 2488 1
2482 2489 1
2482 2490 1
2482 2495 1
2482 2496 1
2482 2497 1
2483 2486 1
2483 2487 1
2483 2494 1
2484 2486 1
2484 2487 1
2484 2494 1
2485 2491 1
2485 2492 1
2485 2493 1
2485 2498 1
2485 2499 1
2485 2500 1
2486 2488 1
2486 2489 1
2486 2490 1
2486 2495 1
2486 2496 1
2486 2497 1
2487 2495 1
2487 2496 1
2487 2497 1
2488 2491 1
2488 2492 1
2488 2493 1
2488 2494 1
2489 2491 1
2489 2492 1
2489 2493 1
2489 2494 1
2490 2494 1
2494 2501 1
2494 2502 1
2494 2503 1
2495 2498 1
2495 2499 1
2495 2500 1
2496 2498 1
2496 2499 1
2496 2500 1
2497 2504 1
2497 2505 1
2497 2506 1
2498 2501 1
2498 2502 1
2498 2503 1
2499 2501 1
2499 2502 1
2499 2503 1
2501 2504 1
2501 2505 1
2501 2506 1
2502 2504 1
2502 2505 1
2502 2506 1
2507 2512 1
2507 2515 1
2508 2513 1
2508 2514 1
2508 2516 1
2508 2517 1
2509 2512 1
2509 2515 1
2510 2512 1
2510 2515 1
2511 2518 1
2512 2516 1
2512 2517 1
2513 2515 1
2514 2515 1
2515 2519 1
2515 2520 1
2515 2521 1
2516 2518 1
2517 2522 1
2517 2523 1
2517 2524 1
2518 2525 1
2518 2526 1
2518 2527 1
2519 2522 1
2519 2523 1
2519 2524 1
2520 2522 1
2520 2523 1
2520 2524 1
2521 2528 1
2521 2529 1
2521 2530 1
2522 2525 1
2522 2526 1
2522 2527 1
2523 2525 1
2523 2526 1
2523 2527 1
2524 2531 1
2524 2532 1
2524 2533 1
2525 2528 1
2525 2529 1
2525 2530 1
2526 2528 1
2526 2529 1
2526 2530 1
2527 2534 1
2527 2535 1
2527 2536 1
2528 2531 1
2528 2532 1
2528 2533 1
2529 2531 1
2529 2532 1
2529 2533 1
2530 2537 1
2530 2538 1
2530 2539 1
2531 2534 1
2531 2535 1
2531 2536 1
2532 2534 1
2532 2535 1
2532 2536 1
2533 2540 1
2533 2541 1
2533 2542 1
2534 2537 1
2534 2538 1
2534 2539 1
2535 2537 1
2535 2538 1
2535 2539 1
2536 2543 1
2536 2544 1
2536 2545 1
2537 2540 1
2537 2541 1
2537 2542 1
2538 2540 1
2538 2541 1
2538 2542 1
2539 2546 1
2539 2547 1
2539 2548 1
2540 2543 1
2540 2544 1
2540 2545 1
2541 2543 1
2541 2544 1
2541 2545 1
2542 2549 1
2542 2550 1
2542 2551 1
2543 2546 1
2543 2547 1
2543 2548 1
2544 2546 1
2544 2547 1
2544 2548 1
2545 2552 1
2545 2553 1
2545 2554 1
2546 2549 1
2546 2550 1
2546 2551 1
2547 2549 1
2547 2550 1
2547 2551 1
2548 2555 1
2548 2556 1
2548 2557 1
2549 2552 1
2549 2553 1
2549 2554 1
2550 2552 1
2550 2553 1
2550 2554 1
2551 2558 1
2551 2559 1
2551 2560 1
2552 2555 1
2552 2556 1
2552 2557 1
2553 2555 1
2553 2556 1
2553 2557 1
2554 2561 1
2554 2562 1
2554 2563 1
2555 2558 1
2555 2559 1
2555 2560 1
2556 2558 1
2556 2559 1
2556 2560 1
2557 2564 1
2557 2565 1
2557 2566 1
2558 2561 1
2558 2562 1
2558 2563 1
2559 2561 1
2559 2562 1
2559 2563 1
2560 2567 1
2560 2568 1
2560 2569 1
2561 2564 1
2561 2565 1
2561 2566 1
2562 2564 1
2562 2565 1
2562 2566 1
2563 2570 1
2563 2571 1
2563 2572 1
2564 2567 1
2564 2568 1
2564 2569 1
2565 2567 1
2565 2568 1
2565 2569 1
2567 2570 1
2567 2571 1
2567 2572 1
2568 2570 1
2568 2571 1
2568 2572 1
2573 2578 1
2573 2581 1
2574 2579 1
2574 2580 1
2574 2582 1
2574 2583 1
2575 2578 1
2575 2581 1
2576 2578 1
2576 2581 1
2577 2584 1
2578 2582 1
2578 2583 1
2579 2581 1
2580 2581 1
2581 2585 1
2581 2586 1
2581 2587 1
2582 2584 1
2583 2588 1
2583 2589 1
2583 2596 1
2584 2590 1
2584 2591 1
2584 2592 1
2584 2597 1
2584 2598 1
2584 2599 1
2585 2588 1
2585 2589 1
2585 2596 1
2586 2588 1
2586 2589 1
2586 2596 1
2587 2593 1
2587 2594 1
2587 2595 1
2587 2600 1
2587 2601 1
2587 2602 1
2588 2590 1
2588 2591 1
2588 2592 1
2588 2597 1
2588 2598 1
2588 2599 1
2589 2597 1
2589 2598 1
2589 2599 1
2590 2593 1
2590 2594 1
2590 2595 1
2590 2596 1
2591 2593 1
2591 2594 1
2591 2595 1
2591 2596 1
2592 2596 1
2596 2603 1
2596 2604 1
2596 2605 1
2597 2600 1
2597 2601 1
2597 2602 1
2598 2600 1
2598 2601 1
2598 2602 1
2599 2606 1
2599 2607 1
2599 2608 1
2600 2603 1
2600 2604 1
2600 2605 1
2601 2603 1
2601 2604 1
2601 2605 1
2603 2606 1
2603 2607 1
2603 2608 1
2604 2606 1
2604 2607 1
2604 2608 1
2609 2614 1
2609 2617 1
2610 2615 1
2610 2616 1
2610 2618 1
2610 2619 1
2611 2614 1
2611 2617 1
2612 2614 1
2612 2617 1
2613 2620 1
2614 2618 1
2614 2619 1
2615 2617 1
2616 2617 1
2617 2621 1
2617 2622 1
2617 2623 1
2618 2620 1
2619 2624 1
2619 2625 1
2619 2626 1
2620 2627 1
2620 2628 1
2620 2629 1
2621 2624 1
2621 2625 1
2621 2626 1
2622 2624 1
2622 2625 1
2622 2626 1
2623 2630 1
2623 2631 1
2623 2632 1
2624 2627 1
2624 2628 1
2624 2629 1
2625 2627 1
2625 2628 1
2625 2629 1
2626 2633 1
2626 2634 1
2626 2635 1
2627 2630 1
2627 2631 1
2627 2632 1
2628 2630 1
2628 2631 1
2628 2632 1
2629 2636 1
2629 2637 1
2629 2638 1
2630 2633 1
2630 2634 1
2630 2635 1
2631 2633 1
2631 2634 1
2631 2635 1
2632 2639 1
2632 2640 1
2632 2641 1
2633 2636 1
2633 2637 1
2633 2638 1
2634 2636 1
2634 2637 1
2634 2638 1
2635 2642 1
2635 2643 1
2635 2644 1
2636 2639 1
2636 2640 1
2636 2641 1
2637 2639 1
2637 2640 1
2637 2641 1
2638 2645 1
2638 2646 1
2638 2647 1
2639 2642 1
2639 2643 1
2639 2644 1
2640 2642 1
2640 2643 1
2640 2644 1
2641 2648 1
2641 2649 1
2641 2650 1
2642 2645 1
2642 2646 1
2642 2647 1
2643 2645 1
2643 2646 1
2643 2647 1
2644 2651 1
2644 2652 1
2644 2653 1
2645 2648 1
2645 2649 1
2645 2650 1
2646 2648 1
2646 2649 1
2646 2650 1
2647 2654 1
2647 2655 1
2647 2656 1
2648 2651 1
2648 2652 1
2648 2653 1
2649 2651 1
2649 2652 1
2649 2653 1
2650 2657 1
2650 2658 1
2650 2659 1
2651 2654 1
2651 2655 1
2651 2656 1
2652 2654 1
2652 2655 1
2652 2656 1
2653 2660 1
2653 2661 1
2653 2662 1
2654 2657 1
2654 2658 1
2654 2659 1
2655 2657 1
2655 2658 1
2655 2659 1
2656 2663 1
2656 2664 1
2656 2665 1
2657 2660 1
2657 2661 1
2657 2662 1
2658 2660 1
2658 2661 1
2658 2662 1
2659 2666 1
2659 2667 1
2659 2668 1
2660 2663 1
2660 2664 1
2660 2665 1
2661 2663 1
2661 2664 1
2661 2665 1
2662 2669 1
2662 2670 1
2662 2671 1
2663 2666 1
2663 2667 1
2663 2668 1
2664 2666 1
2664 2667 1
2664 2668 1
2665 2672 1
2665 2673 1
2665 2674 1
2666 2669 1
2666 2670 1
2666 2671 1
2667 2669 1
2667 2670 1
2667 2671 1
2669 2672 1
2669 2673 1
2669 2674 1
2670 2672 1
2670 2673 1
2670 2674 1
2675 2680 1
2675 2683 1
2676 2681 1
2676 2682 1
2676 2684 1
2676 2685 1
2677 2680 1
2677 2683 1
2678 2680 1
2678 2683 1
2679 2686 1
2680 2684 1
2680 2685 1
2681 2683 1
2682 2683 1
2683 2687 1
2683 2688 1
2683 2689 1
2684 2686 1
2685 2690 1
2685 2691 1
2685 2698 1
2686 2692 1
2686 2693 1
2686 2694 1
2686 2699 1
2686 2700 1
2686 2701 1
2687 2690 1
2687 2691 1
2687 2698 1
2688 2690 1
2688 2691 1
2688 2698 1
2689 2695 1
2689 2696 1
2689 2697 1
2689 2702 1
2689 2703 1
2689 2704 1
2690 2692 1
2690 2693 1
2690 2694 1
2690 2699 1
2690 2700 1
2690 2701 1
2691 2699 1
2691 2700 1
2691 2701 1
2692 2695 1
2692 2696 1
2692 2697 1
2692 2698 1
2693 2695 1
2693 2696 1
2693 2697 1
2693 2698 1
2694 2698 1
2698 2705 1
2698 2706 1
2698 2707 1
2699 2702 1
2699 2703 1
2699 2704 1
2700 2702 1
2700 2703 1
2700 2704 1
2701 2708 1
2701 2709 1
2701 2710 1
2702 2705 1
2702 2706 1
2702 2707 1
2703 2705 1
2703 2706 1
2703 2707 1
2705 2708 1
2705 2709 1
2705 2710 1
2706 2708 1
2706 2709 1
2706 2710 1
2711 2716 1
2711 2719 1
2712 2717 1
2712 2718 1
2712 2720 1
2712 2721 1
2713 2716 1
2713 2719 1
2714 2716 1
2714 2719 1
2715 2722 1
2716 2720 1
2716 2721 1
2717 2719 1
2718 2719 1
2719 2723 1
2719 2724 1
2719 2725 1
2720 2722 1
2721 2726 1
2721 2727 1
2721 2728 1
2722 2729 1
2722 2730 1
2722 2731 1
2723 2726 1
2723 2727 1
2723 2728 1
2724 2726 1
2724 2727 1
2724 2728 1
2725 2732 1
2725 2733 1
2725 2734 1
2726 2729 1
2726 2730 1
2726 2731 1
2727 2729 1
2727 2730 1
2727 2731 1
2728 2735 1
2728 2736 1
2728 2737 1
2729 2732 1
2729 2733 1
2729 2734 1
2730 2732 1
2730 2733 1
2730 2734 1
2731 2738 1
2731 2739 1
2731 2740 1
2732 2735 1
2732 2736 1
2732 2737 1
2733 2735 1
2733 2736 1
2733 2737 1
2734 2741 1
2734 2742 1
2734 2743 1
2735 2738 1
2735 2739 1
2735 2740 1
2736 2738 1
2736 2739 1
2736 2740 1
2737 2744 1
2737 2745 1
2737 2746 1
2738 2741 1
2738 2742 1
2738 2743 1
2739 2741 1
2739 2742 1
2739 2743 1
2740 2747 1
2740 2748 1
2740 2749 1
2741 2744 1
2741 2745 1
2741 2746 1
2742 2744 1
2742 2745 1
2742 2746 1
2743 2750 1
2743 2751 1
2743 2752 1
2744 2747 1
2744 2748 1
2744 2749 1
2745 2747 1
2745 2748 1
2745 2749 1
2746 2753 1
2746 2754 1
2746 2755 1
2747 2750 1
2747 2751 1
2747 2752 1
2748 2750 1
2748 2751 1
2748 2752 1
2749 2756 1
2749 2757 1
2749 2758 1
2750 2753 1
2750 2754 1
2750 2755 1
2751 2753 1
2751 2754 1
2751 2755 1
2753 2756 1
2753 2757 1
2753 2758 1
2754 2756 1
2754 2757 1
2754 2758 1
2759 2764 1
2759 2767 1
2760 2765 1
2760 2766 1
2760 2768 1
2760 2769 1
2761 2764 1
2761 2767 1
2762 2764 1
2762 2767 1
2763 2770 1
2764 2768 1
2764 2769 1
2765 2767 1
2766 2767 1
2767 2771 1
2767 2772 1
2767 2773 1
2768 2770 1
2769 2774 1
2769 2775 1
2769 2782 1
2770 2776 1
2770 2777 1
2770 2778 1
2770 2783 1
2770 2784 1
2770 2785 1
2771 2774 1
2771 2775 1
2771 2782 1
2772 2774 1
2772 2775 1
2772 2782 1
2773 2779 1
2773 2780 1
2773 2781 1
2773 2786 1
2773 2787 1
2773 2788 1
2774 2776 1
2774 2777 1
2774 2778 1
2774 2783 1
2774 2784 1
2774 2785 1
2775 2783 1
2775 2784 1
2775 2785 1
2776 2779 1
2776 2780 1
2776 2781 1
2776 2782 1
2777 2779 1
2777 2780 1
2777 2781 1
2777 2782 1
2778 2782 1
2782 2789 1
2782 2790 1
2782 2791 1
2783 2786 1
2783 2787 1
2783 2788 1
2784 2786 1
2784 2787 1
2784 2788 1
2785 2792 1
2785 2793 1
2785 2794 1
2786 2789 1
2786 2790 1
2786 2791 1
2787 2789 1
2787 2790 1
2787 2791 1
2789 2792 1
2789 2793 1
2789 2794 1
2790 2792 1
2790 2793 1
2790 2794 1
2795 2800 1
2795 2803 1
2796 2801 1
2796 2802 1
2796 2804 1
2796 2805 1
2797 2800 1
2797 2803 1
2798 2800 1
2798 2803 1
2799 2806 1
2800 2804 1
2800 2805 1
2801 2803 1
2802 2803 1
2803 2807 1
2803 2808 1
2803 2809 1
2804 2806 1
2805 2810 1
2805 2811 1
2805 2818 1
2806 2812 1
2806 2813 1
2806 2814 1
2806 2819 1
2806 2820 1
2806 2821 1
2807 2810 1
2807 2811 1
2807 2818 1
2808 2810 1
2808 2811 1
2808 2818 1
2809 2815 1
2809 2816 1
2809 2817 1
2809 2822 1
2809 2823 1
2809 2824 1
2810 2812 1
2810 2813 1
2810 2814 1
2810 2819 1
2810 2820 1
2810 2821 1
2811 2819 1
2811 2820 1
2811 2821 1
2812 2815 1
2812 2816 1
2812 2817 1
2812 2818 1
2813 2815 1
2813 2816 1
2813 2817 1
2813 2818 1
2814 2818 1
2818 2825 1
2818 2826 1
2818 2827 1
2819 2822 1
2819 2823 1
2819 2824 1
2820 2822 1
2820 2823 1
2820 2824 1
2821 2828 1
2821 2829 1
2821 2830 1
2822 2825 1
2822 2826 1
2822 2827 1
2823 2825 1
2823 2826 1
2823 2827 1
2825 2828 1
2825 2829 1
2825 2830 1
2826 2828 1
2826 2829 1
2826 2830 1
2831 2836 1
2831 2839 1
2832 2837 1
2832 2838 1
2832 2840 1
2832 2841 1
2833 2836 1
2833 2839 1
2834 2836 1
2834 2839 1
2835 2842 1
2836 2840 1
2836 2841 1
2837 2839 1
2838 2839 1
2839 2843 1
2839 2844 1
2839 2845 1
2840 2842 1
2841 2846 1
2841 2847 1
2841 2848 1
2842 2849 1
2842 2850 1
2842 2851 1
2843 2846 1
2843 2847 1
2843 2848 1
2844 2846 1
2844 2847 1
2844 2848 1
2845 2852 1
2845 2853 1
2845 2854 1
2846 2849 1
2846 2850 1
2846 2851 1
2847 2849 1
2847 2850 1
2847 2851 1
2848 2855 1
2848 2856 1
2848 2857 1
2849 2852 1
2849 2853 1
2849 2854 1
2850 2852 1
2850 2853 1
2850 2854 1
2851 2858 1
2851 2859 1
2851 2860 1
2852 2855 1
2852 2856 1
2852 2857 1
2853 2855 1
2853 2856 1
2853 2857 1
2854 2861 1
2854 2862 1
2854 2863 1
2855 2858 1
2855 2859 1
2855 2860 1
2856 2858 1
2856 2859 1
2856 2860 1
2857 2864 1
2857 2865 1
2857 2866 1
2858 2861 1
2858 2862 1
2858 2863 1
2859 2861 1
2859 2862 1
2859 2863 1
2860 2867 1
2860 2868 1
2860 2869 1
2861 2864 1
2861 2865 1
2861 2866 1
2862 2864 1
2862 2865 1
2862 2866 1
2863 2870 1
2863 2871 1
2863 2872 1
2864 2867 1
2864 2868 1
2864 2869 1
2865 2867 1
2865 2868 1
2865 2869 1
2866 2873 1
2866 2874 1
2866 2875 1
2867 2870 1
2867 2871 1
2867 2872 1
2868 2870 1
2868 2871 1
2868 2872 1
2869 2876 1
2869 2877 1
2869 2878 1
2870 2873 1
2870 2874 1
2870 2875 1
2871 2873 1
2871 2874 1
2871 2875 1
2872 2879 1
2872 2880 1
2872 2881 1
2873 2876 1
2873 2877 1
2873 2878 1
2874 2876 1
2874 2877 1
2874 2878 1
2875 2882 1
2875 2883 1
2875 2884 1
2876 2879 1
2876 2880 1
2876 2881 1
2877 2879 1
2877 2880 1
2877 2881 1
2878 2885 1
2878 2886 1
2878 2887 1
2879 2882 1
2879 2883 1
2879 2884 1
2880 2882 1
2880 2883 1
2880 2884 1
2881 2888 1
2881 2889 1
2881 2890 1
2882 2885 1
2882 2886 1
2882 2887 1
2883 2885 1
2883 2886 1
2883 2887 1
2884 2891 1
2884 2892 1
2884 2893 1
2885 2888 1
2885 2889 1
2885 2890 1
2886 2888 1
2886 2889 1
2886 2890 1
2887 2894 1
2887 2895 1
2887 2896 1
2888 2891 1
2888 2892 1
2888 2893 1
2889 2891 1
2889 2892 1
2889 2893 1
2891 2894 1
2891 2895 1
2891 2896 1
2892 2894 1
2892 2895 1
2892 2896 1
2897 2902 1
2897 2905 1
2898 2903 1
2898 2904 1
2898 2906 1
2898 2907 1
2899 2902 1
2899 2905 1
2900 2902 1
2900 2905 1
2901 2908 1
2902 2906 1
2902 2907 1
2903 2905 1
2904 2905 1
2905 2909 1
2905 2910 1
2905 2911 1
2906 2908 1
2907 2912 1
2907 2913 1
2907 2920 1
2908 2914 1
2908 2915 1
2908 2916 1
2908 2921 1
2908 2922 1
2908 2923 1
2909 2912 1
2909 2913 1
2909 2920 1
2910 2912 1
2910 2913 1
2910 2920 1
2911 2917 1
2911 2918 1
2911 2919 1
2911 2924 1
2911 2925 1
2911 2926 1
2912 2914 1
2912 2915 1
2912 2916 1
2912 2921 1
2912 2922 1
2912 2923 1
2913 2921 1
2913 2922 1
2913 2923 1
2914 2917 1
2914 2918 1
2914 2919 1
2914 2920 1
2915 2917 1
2915 2918 1
2915 2919 1
2915 2920 1
2916 2920 1
2920 2927 1
2920 2928 1
2920 2929 1
2921 2924 1
2921 2925 1
2921 2926 1
2922 2924 1
2922 2925 1
2922 2926 1
2923 2930 1
2923 2931 1
2923 2932 1
2924 2927 1
2924 2928 1
2924 2929 1
2925 2927 1
2925 2928 1
2925 2929 1
2927 2930 1
2927 2931 1
2927 2932 1
2928 2930 1
2928 2931 1
2928 2932 1
2933 2938 1
2933 2941 1
2934 2939 1
2934 2940 1
2934 2942 1
2934 2943 1
2935 2938 1
2935 2941 1
2936 2938 1
2936 2941 1
2937 2944 1
2938 2942 1
2938 2943 1
2939 2941 1
2940 2941 1
2941 2945 1
2941 2946 1
2941 2947 1
2942 2944 1
2943 2948 1
2943 2949 1
2943 2950 1
2944 2951 1
2944 2952 1
2944 2953 1
2945 2948 1
2945 2949 1
2945 2950 1
2946 2948 1
2946 2949 1
2946 2950 1
2947 2954 1
2947 2955 1
2947 2956 1
2948 2951 1
2948 2952 1
2948 2953 1
2949 2951 1
2949 2952 1
2949 2953 1
2950 2957 1
2950 2958 1
2950 2959 1
2951 2954 1
2951 2955 1
2951 2956 1
2952 2954 1
2952 2955 1
2952 2956 1
2953 2960 1
2953 2961 1
2953 2962 1
2954 2957 1
2954 2958 1
2954 2959 1
2955 2957 1
2955 2958 1
2955 2959 1
2956 2963 1
2956 2964 1
2956 2965 1
2957 2960 1
2957 2961 1
2957 2962 1
2958 2960 1
2958 2961 1
2958 2962 1
2959 2966 1
2959 2967 1
2959 2968 1
2960 2963 1
2960 2964 1
2960 2965 1
2961 2963 1
2961 2964 1
2961 2965 1
2962 2969 1
2962 2970 1
2962 2971 1
2963 2966 1
2963 2967 1
2963 2968 1
2964 2966 1
2964 2967 1
2964 2968 1
2965 2972 1
2965 2973 1
2965 2974 1
2966 2969 1
2966 2970 1
2966 2971 1
2967 2969 1
2967 2970 1
2967 2971 1
2968 2975 1
2968 2976 1
2968 2977 1
2969 2972 1
2969 2973 1
2969 2974 1
2970 2972 1
2970 2973 1
2970 2974 1
2971 2978 1
2971 2979 1
2971 2980 1
2972 2975 1
2972 2976 1
2972 2977 1
2973 2975 1
2973 2976 1
2973 2977 1
2975 2978 1
2975 2979 1
2975 2980 1
2976 2978 1
2976 2979 1
2976 2980 1
2981 2986 1
2981 2989 1
2982 2987 1
2982 2988 1
2982 2990 1
2982 2991 1
2983 2986 1
2983 2989 1
2984 2986 1
2984 2989 1
2985 2992 1
2986 2990 1
2986 2991 1
2987 2989 1
2988 2989 1
2989 2993 1
2989 2994 1
2989 2995 1
2990 2992 1
2991 2996 1
2991 2997 1
2991 3004 1
2992 2998 1
2992 2999 1
2992 3000 1
2992 3005 1
2992 3006 1
2992 3007 1
2993 2996 1
2993 2997 1
2993 3004 1
2994 2996 1
2994 2997 1
2994 3004 1
2995 3001 1
2995 3002 1
2995 3003 1
2995 3008 1
2995 3009 1
2995 3010 1
2996 2998 1
2996 2999 1
2996 3000 1
2996 3005 1
2996 3006 1
2996 3007 1
2997 3005 1
2997 3006 1
2997 3007 1
2998 3001 1
2998 3002 1
2998 3003 1
2998 3004 1
2999 3001 1
2999 3002 1
2999 3003 1
2999 3004 1
3000 3004 1
3004 3011 1
3004 3012 1
3004 3013 1
3005 3008 1
3005 3009 1
3005 3010 1
3006 3008 1
3006 3009 1
3006 3010 1
3007 3014 1
3007 3015 1
3007 3016 1
3008 3011 1
3008 3012 1
3008 3013 1
3009 3011 1
3009 3012 1
3009 3013 1
3011 3014 1
3011 3015 1
3011 3016 1
3012 3014 1
3012 3015 1
3012 3016 1
3017 3022 1
3017 3025 1
3018 3023 1
3018 3024 1
3018 3026 1
3018 3027 1
3019 3022 1
3019 3025 1
3020 3022 1
3020 3025 1
3021 3028 1
3022 3026 1
3022 3027 1
3023 3025 1
3024 3025 1
3025 3029 1
3025 3030 1
3025 3031 1
3026 3028 1
3027 3032 1
3027 3033 1
3027 3034 1
3028 3035 1
3028 3036 1
3028 3037 1
3029 3032 1
3029 3033 1
3029 3034 1
3030 3032 1
3030 3033 1
3030 3034 1
3031 3038 1
3031 3039 1
3031 3040 1
3032 3035 1
3032 3036 1
3032 3037 1
3033 3035 1
3033 3036 1
3033 3037 1
3034 3041 1
3034 3042 1
3034 3043 1
3035 3038 1
3035 3039 1
3035 3040 1
3036 3038 1
3036 3039 1
3036 3040 1
3037 3044 1
3037 3045 1
3037 3046 1
3038 3041 1
3038 3042 1
3038 3043 1
3039 3041 1
3039 3042 1
3039 3043 1
3040 3047 1
3040 3048 1
3040 3049 1
3041 3044 1
3041 3045 1
3041 3046 1
3042 3044 1
3042 3045 1
3042 3046 1
3043 3050 1
3043 3051 1
3043 3052 1
3044 3047 1
3044 3048 1
3044 3049 1
3045 3047 1
3045 3048 1
3045 3049 1
3046 3053 1
3046 3054 1
3046 3055 1
3047 3050 1
3047 3051 1
3047 3052 1
3048 3050 1
3048 3051 1
3048 3052 1
3049 3056 1
3049 3057 1
3049 3058 1
3050 3053 1
3050 3054 1
3050 3055 1
3051 3053 1
3051 3054 1
3051 3055 1
3052 3059 1
3052 3060 1
3052 3061 1
3053 3056 1
3053 3057 1
3053 3058 1
3054 3056 1
3054 3057 1
3054 3058 1
3055 3062 1
3055 3063 1
3055 3064 1
3056 3059 1
3056 3060 1
3056 3061 1
3057 3059 1
3057 3060 1
3057 3061 1
3059 3062 1
3059 3063 1
3059 3064 1
3060 3062 1
3060 3063 1
3060 3064 1
3065 3070 1
3065 3073 1
3066 3071 1
3066 3072 1
3066 3074 1
3066 3075 1
3067 3070 1
3067 3073 1
3068 3070 1
3068 3073 1
3069 3076 1
3070 3074 1
3070 3075 1
3071 3073 1
3072 3073 1
3073 3077 1
3073 3078 1
3073 3079 1
3074 3076 1
3075 3080 1
3075 3081 1
3075 3082 1
3076 3083 1
3076 3084 1
3076 3085 1
3077 3080 1
3077 3081 1
3077 3082 1
3078 3080 1
3078 3081 1
3078 3082 1
3079 3086 1
3079 3087 1
3079 3088 1
3080 3083 1
3080 3084 1
3080 3085 1
3081 3083 1
3081 3084 1
3081 3085 1
3082 3089 1
3082 3090 1
3082 3091 1
3083 3086 1
3083 3087 1
3083 3088 1
3084 3086 1
3084 3087 1
3084 3088 1
3085 3092 1
3085 3093 1
3085 3094 1
3086 3089 1
3086 3090 1
3086 3091 1
3087 3089 1
3087 3090 1
3087 3091 1
3088 3095 1
3088 3096 1
3088 3097 1
3089 3092 1
3089 3093 1
3089 3094 1
3090 3092 1
3090 3093 1
3090 3094 1
3091 3098 1
3091 3099 1
3091 3100 1
3092 3095 1
3092 3096 1
3092 3097 1
3093 3095 1
3093 3096 1
3093 3097 1
3094 3101 1
3094 3102 1
3094 3103 1
3095 3098 1
3095 3099 1
3095 3100 1
3096 3098 1
3096 3099 1
3096 3100 1
3097 3104 1
3097 3105 1
3097 3106 1
3098 3101 1
3098 3102 1
3098 3103 1
3099 3101 1
3099 3102 1
3099 3103 1
3100 3107 1
3100 3108 1
3100 3109 1
3101 3104 1
3101 3105 1
3101 3106 1
3102 3104 1
3102 3105 1
3102 3106 1
3103 3110 1
3103 3111 1
3103 3112 1
3104 3107 1
3104 3108 1
3104 3109 1
3105 3107 1
3105 3108 1
3105 3109 1
3106 3113 1
3106 3114 1
3106 3115 1
3107 3110 1
3107 3111 1
3107 3112 1
3108 3110 1
3108 3111 1
3108 3112 1
3109 3116 1
3109 3117 1
3109 3118 1
3110 3113 1
3110 3114 1
3110 3115 1
3111 3113 1
3111 3114 1
3111 3115 1
3112 3119 1
3112 3120 1
3112 3121 1
3113 3116 1
3113 3117 1
3113 3118 1
3114 3116 1
3114 3117 1
3114 3118 1
3115 3122 1
3115 3123 1
3115 3124 1
3116 3119 1
3116 3120 1
3116 3121 1
3117 3119 1
3117 3120 1
3117 3121 1
3118 3125 1
3118 3126 1
3118 3127 1
3119 3122 1
3119 3123 1
3119 3124 1
3120 3122 1
3120 3123 1
3120 3124 1
3121 3128 1
3121 3129 1
3121 3130 1
3122 3125 1
3122 3126 1
3122 3127 1
3123 3125 1
3123 3126 1
3123 3127 1
3125 3128 1
3125 3129 1
3125 3130 1
3126 3128 1
3126 3129 1
3126 3130 1
3131 3136 1
3131 3139 1
3132 3137 1
3132 3138 1
3132 3140 1
3132 3141 1
3133 3136 1
3133 3139 1
3134 3136 1
3134 3139 1
3135 3142 1
3136 3140 1
3136 3141 1
3137 3139 1
3138 3139 1
3139 3143 1
3139 3144 1
3139 3145 1
3140 3142 1
3141 3146 1
3141 3147 1
3141 3148 1
3142 3149 1
3142 3150 1
3142 3151 1
3143 3146 1
3143 3147 1
3143 3148 1
3144 3146 1
3144 3147 1
3144 3148 1
3145 3152 1
3145 3153 1
3145 3154 1
3146 3149 1
3146 3150 1
3146 3151 1
3147 3149 1
3147 3150 1
3147 3151 1
3148 3155 1
3148 3156 1
3148 3157 1
3149 3152 1
3149 3153 1
3149 3154 1
3150 3152 1
3150 3153 1
3150 3154 1
3151 3158 1
3151 3159 1
3151 3160 1
3152 3155 1
3152 3156 1
3152 3157 1
3153 3155 1
3153 3156 1
3153 3157 1
3154 3161 1
3154 3162 1
3154 3163 1
3155 3158 1
3155 3159 1
3155 3160 1
3156 3158 1
3156 3159 1
3156 3160 1
3157 3164 1
3157 3165 1
3157 3166 1
3158 3161 1
3158 3162 1
3158 3163 1
3159 3161 1
3159 3162 1
3159 3163 1
3160 3167 1
3160 3168 1
3160 3169 1
3161 3164 1
3161 3165 1
3161 3166 1
3162 3164 1
3162 3165 1
3162 3166 1
3163 3170 1
3163 3171 1
3163 3172 1
3164 3167 1
3164 3168 1
3164 3169 1
3165 3167 1
3165 3168 1
3165 3169 1
3166 3173 1
3166 3174 1
3166 3175 1
3167 3170 1
3167 3171 1
3167 3172 1
3168 3170 1
3168 3171 1
3168 3172 1
3169 3176 1
3169 3177 1
3169 3178 1
3170 3173 1
3170 3174 1
3170 3175 1
3171 3173 1
3171 3174 1
3171 3175 1
3172 3179 1
3172 3180 1
3172 3181 1
3173 3176 1
3173 3177 1
3173 3178 1
3174 3176 1
3174 3177 1
3174 3178 1
3175 3182 1
3175 3183 1
3175 3184 1
3176 3179 1
3176 3180 1
3176 3181 1
3177 3179 1
3177 3180 1
3177 3181 1
3178 3185 1
3178 3186 1
3178 3187 1
3179 3182 1
3179 3183 1
3179 3184 1
3180 3182 1
3180 3183 1
3180 3184 1
3181 3188 1
3181 3189 1
3181 3190 1
3182 3185 1
3182 3186 1
3182 3187 1
3183 3185 1
3183 3186 1
3183 3187 1
3184 3191 1
3184 3192 1
3184 3193 1
3185 3188 1
3185 3189 1
3185 3190 1
3186 3188 1
3186 3189 1
3186 3190 1
3187 3194 1
3187 3195 1
3187 3196 1
3188 3191 1
3188 3192 1
3188 3193 1
3189 3191 1
3189 3192 1
3189 3193 1
3191 3194 1
3191 3195 1
3191 3196 1
3192 3194 1
3192 3195 1
3192 3196 1
3197 3202 1
3197 3205 1
3198 3203 1
3198 3204 1
3198 3206 1
3198 3207 1
3199 3202 1
3199 3205 1
3200 3202 1
3200 3205 1
3201 3208 1
3202 3206 1
3202 3207 1
3203 3205 1
3204 3205 1
3205 3209 1
3205 3210 1
3205 3211 1
3206 3208 1
3207 3212 1
3207 3213 1
3207 3214 1
3208 3215 1
3208 3216 1
3208 3217 1
3209 3212 1
3209 3213 1
3209 3214 1
3210 3212 1
3210 3213 1
3210 3214 1
3211 3218 1
3211 3219 1
3211 3220 1
3212 3215 1
3212 3216 1
3212 3217 1
3213 3215 1
3213 3216 1
3213 3217 1
3214 3221 1
3214 3222 1
3214 3223 1
3215 3218 1
3215 3219 1
3215 3220 1
3216 3218 1
3216 3219 1
3216 3220 1
3217 3224 1
3217 3225 1
3217 3226 1
3218 3221 1
3218 3222 1
3218 3223 1
3219 3221 1
3219 3222 1
3219 3223 1
3220 3227 1
3220 3228 1
3220 3229 1
3221 3224 1
3221 3225 1
3221 3226 1
3222 3224 1
3222 3225 1
3222 3226 1
3223 3230 1
3223 3231 1
3223 3232 1
3224 3227 1
3224 3228 1
3224 3229 1
3225 3227 1
3225 3228 1
3225 3229 1
3226 3233 1
3226 3234 1
3226 3235 1
3227 3230 1
3227 3231 1
3227 3232 1
3228 3230 1
3228 3231 1
3228 3232 1
3229 3236 1
3229 3237 1
3229 3238 1
3230 3233 1
3230 3234 1
3230 3235 1
3231 3233 1
3231 3234 1
3231 3235 1
3232 3239 1
3232 3240 1
3232 3241 1
3233 3236 1
3233 3237 1
3233 3238 1
3234 3236 1
3234 3237 1
3234 3238 1
3235 3242 1
3235 3243 1
3235 3244 1
3236 3239 1
3236 3240 1
3236 3241 1
3237 3239 1
3237 3240 1
3237 3241 1
3238 3245 1
3238 3246 1
3238 3247 1
3239 3242 1
3239 3243 1
3239 3244 1
3240 3242 1
3240 3243 1
3240 3244 1
3241 3248 1
3241 3249 1
3241 3250 1
3242 3245 1
3242 3246 1
3242 3247 1
3243 3245 1
3243 3246 1
3243 3247 1
3244 3251 1
3244 3252 1
3244 3253 1
3245 3248 1
3245 3249 1
3245 3250 1
3246 3248 1
3246 3249 1
3246 3250 1
3247 3254 1
3247 3255 1
3247 3256 1
3248 3251 1
3248 3252 1
3248 3253 1
3249 3251 1
3249 3252 1
3249 3253 1
3250 3257 1
3250 3258 1
3250 3259 1
3251 3254 1
3251 3255 1
3251 3256 1
3252 3254 1
3252 3255 1
3252 3256 1
3253 3260 1
3253 3261 1
3253 3262 1
3254 3257 1
3254 3258 1
3254 3259 1
3255 3257 1
3255 3258 1
3255 3259 1
3257 3260 1
3257 3261 1
3257 3262 1
3258 3260 1
3258 3261 1
3258 3262 1
3263 3268 1
3263 3271 1
3264 3269 1
3264 3270 1
3264 3272 1
3264 3273 1
3265 3268 1
3265 3271 1
3266 3268 1
3266 3271 1
3267 3274 1
3268 3272 1
3268 3273 1
3269 3271 1
3270 3271 1
3271 3275 1
3271 3276 1
3271 3277 1
3272 3274 1
3273 3278 1
3273 3279 1
3273 3286 1
3274 3280 1
3274 3281 1
3274 3282 1
3274 3287 1
3274 3288 1
3274 3289 1
3275 3278 1
3275 3279 1
3275 3286 1
3276 3278 1
3276 3279 1
3276 3286 1
3277 3283 1
3277 3284 1
3277 3285 1
3277 3290 1
3277 3291 1
3277 3292 1
3278 3280 1
3278 3281 1
3278 3282 1
3278 3287 1
3278 3288 1
3278 3289 1
3279 3287 1
3279 3288 1
3279 3289 1
3280 3283 1
3280 3284 1
3280 3285 1
3280 3286 1
3281 3283 1
3281 3284 1
3281 3285 1
3281 3286 1
3282 3286 1
3286 3293 1
3286 3294 1
3286 3295 1
3287 3290 1
3287 3291 1
3287 3292 1
3288 3290 1
3288 3291 1
3288 3292 1
3289 3296 1
3289 3297 1
3289 3298 1
3290 3293 1
3290 3294 1
3290 3295 1
3291 3293 1
3291 3294 1
3291 3295 1
3293 3296 1
3293 3297 1
3293 3298 1
3294 3296 1
3294 3297 1
3294 3298 1
3299 3304 1
3299 3307 1
3300 3305 1
3300 3306 1
3300 3308 1
3300 3309 1
3301 3304 1
3301 3307 1
3302 3304 1
3302 3307 1
3303 3310 1
3304 3308 1
3304 3309 1
3305 3307 1
3306 3307 1
3307 3311 1
3307 3312 1
3307 3313 1
3308 3310 1
3309 3314 1
3309 3315 1
3309 3316 1
3310 3317 1
3310 3318 1
3310 3319 1
3311 3314 1
3311 3315 1
3311 3316 1
3312 3314 1
3312 3315 1
3312 3316 1
3313 3320 1
3313 3321 1
3313 3322 1
3314 3317 1
3314 3318 1
3314 3319 1
3315 3317 1
3315 3318 1
3315 3319 1
3316 3323 1
3316 3324 1
3316 3325 1
3317 3320 1
3317 3321 1
3317 3322 1
3318 3320 1
3318 3321 1
3318 3322 1
3319 3326 1
3319 3327 1
3319 3328 1
3320 3323 1
3320 3324 1
3320 3325 1
3321 3323 1
3321 3324 1
3321 3325 1
3322 3329 1
3322 3330 1
3322 3331 1
3323 3326 1
3323 3327 1
3323 3328 1
3324 3326 1
3324 3327 1
3324 3328 1
3325 3332 1
3325 3333 1
3325 3334 1
3326 3329 1
3326 3330 1
3326 3331 1
3327 3329 1
3327 3330 1
3327 3331 1
3328 3335 1
3328 3336 1
3328 3337 1
3329 3332 1
3329 3333 1
3329 3334 1
3330 3332 1
3330 3333 1
3330 3334 1
3331 3338 1
3331 3339 1
3331 3340 1
3332 3335 1
3332 3336 1
3332 3337 1
3333 3335 1
3333 3336 1
3333 3337 1
3334 3341 1
3334 3342 1
3334 3343 1
3335 3338 1
3335 3339 1
3335 3340 1
3336 3338 1
3336 3339 1
3336 3340 1
3337 3344 1
3337 3345 1
3337 3346 1
3338 3341 1
3338 3342 1
3338 3343 1
3339 3341 1
3339 3342 1
3339 3343 1
3341 3344 1
3341 3345 1
3341 3346 1
3342 3344 1
3342 3345 1
3342 3346 1
3347 3352 1
3347 3355 1
3348 3353 1
3348 3354 1
3348 3356 1
3348 3357 1
3349 3352 1
3349 3355 1
3350 3352 1
3350 3355 1
3351 3358 1
3352 3356 1
3352 3357 1
3353 3355 1
3354 3355 1
3355 3359 1
3355 3360 1
3355 3361 1
3356 3358 1
3357 3362 1
3357 3363 1
3357 3364 1
3358 3365 1
3358 3366 1
3358 3367 1
3359 3362 1
3359 3363 1
3359 3364 1
3360 3362 1
3360 3363 1
3360 3364 1
3361 3368 1
3361 3369 1
3361 3370 1
3362 3365 1
3362 3366 1
3362 3367 1
3363 3365 1
3363 3366 1
3363 3367 1
3364 3371 1
3364 3372 1
3364 3373 1
3365 3368 1
3365 3369 1
3365 3370 1
3366 3368 1
3366 3369 1
3366 3370 1
3367 3374 1
3367 3375 1
3367 3376 1
3368 3371 1
3368 3372 1
3368 3373 1
3369 3371 1
3369 3372 1
3369 3373 1
3370 3377 1
3370 3378 1
3370 3379 1
3371 3374 1
3371 3375 1
3371 3376 1
3372 3374 1
3372 3375 1
3372 3376 1
3373 3380 1
3373 3381 1
3373 3382 1
3374 3377 1
3374 3378 1
3374 3379 1
3375 3377 1
3375 3378 1
3375 3379 1
3376 3383 1
3376 3384 1
3376 3385 1
3377 3380 1
3377 3381 1
3377 3382 1
3378 3380 1
3378 3381 1
3378 3382 1
3379 3386 1
3379 3387 1
3379 3388 1
3380 3383 1
3380 3384 1
3380 3385 1
3381 3383 1
3381 3384 1
3381 3385 1
3382 3389 1
3382 3390 1
3382 3391 1
3383 3386 1
3383 3387 1
3383 3388 1
3384 3386 1
3384 3387 1
3384 3388 1
3385 3392 1
3385 3393 1
3385 3394 1
3386 3389 1
3386 3390 1
3386 3391 1
3387 3389 1
3387 3390 1
3387 3391 1
3388 3395 1
3388 3396 1
3388 3397 1
3389 3392 1
3389 3393 1
3389 3394 1
3390 3392 1
3390 3393 1
3390 3394 1
3391 3398 1
3391 3399 1
3391 3400 1
3392 3395 1
3392 3396 1
3392 3397 1
3393 3395 1
3393 3396 1
3393 3397 1
3394 3401 1
3394 3402 1
3394 3403 1
3395 3398 1
3395 3399 1
3395 3400 1
3396 3398 1
3396 3399 1
3396 3400 1
3397 3404 1
3397 3405 1
3397 3406 1
3398 3401 1
3398 3402 1
3398 3403 1
3399 3401 1
3399 3402 1
3399 3403 1
3400 3407 1
3400 3408 1
3400 3409 1
3401 3404 1
3401 3405 1
3401 3406 1
3402 3404 1
3402 3405 1
3402 3406 1
3403 3410 1
3403 3411 1
3403 3412 1
3404 3407 1
3404 3408 1
3404 3409 1
3405 3407 1
3405 3408 1
3405 3409 1
3407 3410 1
3407 3411 1
3407 3412 1
3408 3410 1
3408 3411 1
3408 3412 1
3413 3418 1
3413 3421 1
3414 3419 1
3414 3420 1
3414 3422 1
3414 3423 1
3415 3418 1
3415 3421 1
3416 3418 1
3416 3421 1
3417 3424 1
3418 3422 1
3418 3423 1
3419 3421 1
3420 3421 1
3421 3425 1
3421 3426 1
3421 3427 1
3422 3424 1
3423 3428 1
3423 3429 1
3423 3436 1
3424 3430 1
3424 3431 1
3424 3432 1
3424 3437 1
3424 3438 1
3424 3439 1
3425 3428 1
3425 3429 1
3425 3436 1
3426 3428 1
3426 3429 1
3426 3436 1
3427 3433 1
3427 3434 1
3427 3435 1
3427 3440 1
3427 3441 1
3427 3442 1
3428 3430 1
3428 3431 1
3428 3432 1
3428 3437 1
3428 3438 1
3428 3439 1
3429 3437 1
3429 3438 1
3429 3439 1
3430 3433 1
3430 3434 1
3430 3435 1
3430 3436 1
3431 3433 1
3431 3434 1
3431 3435 1
3431 3436 1
3432 3436 1
3436 3443 1
3436 3444 1
3436 3445 1
3437 3440 1
3437 3441 1
3437 3442 1
3438 3440 1
3438 3441 1
3438 3442 1
3439 3446 1
3439 3447 1
3439 3448 1
3440 3443 1
3440 3444 1
3440 3445 1
3441 3443 1
3441 3444 1
3441 3445 1
3443 3446 1
3443 3447 1
3443 3448 1
3444 3446 1
3444 3447 1
3444 3448 1
3449 3454 1
3449 3457 1
3450 3455 1
3450 3456 1
3450 3458 1
3450 3459 1
3451 3454 1
3451 3457 1
3452 3454 1
3452 3457 1
3453 3460 1
3454 3458 1
3454 3459 1
3455 3457 1
3456 3457 1
3457 3461 1
3457 3462 1
3457 3463 1
3458 3460 1
3459 3464 1
3459 3465 1
3459 3466 1
3460 3467 1
3460 3468 1
3460 3469 1
3461 3464 1
3461 3465 1
3461 3466 1
3462 3464 1
3462 3465 1
3462 3466 1
3463 3470 1
3463 3471 1
3463 3472 1
3464 3467 1
3464 3468 1
3464 3469 1
3465 3467 1
3465 3468 1
3465 3469 1
3466 3473 1
3466 3474 1
3466 3475 1
3467 3470 1
3467 3471 1
3467 3472 1
3468 3470 1
3468 3471 1
3468 3472 1
3469 3476 1
3469 3477 1
3469 3478 1
3470 3473 1
3470 3474 1
3470 3475 1
3471 3473 1
3471 3474 1
3471 3475 1
3472 3479 1
3472 3480 1
3472 3481 1
3473 3476 1
3473 3477 1
3473 3478 1
3474 3476 1
3474 3477 1
3474 3478 1
3475 3482 1
3475 3483 1
3475 3484 1
3476 3479 1
3476 3480 1
3476 3481 1
3477 3479 1
3477 3480 1
3477 3481 1
3478 3485 1
3478 3486 1
3478 3487 1
3479 3482 1
3479 3483 1
3479 3484 1
3480 3482 1
3480 3483 1
3480 3484 1
3481 3488 1
3481 3489 1
3481 3490 1
3482 3485 1
3482 3486 1
3482 3487 1
3483 3485 1
3483 3486 1
3483 3487 1
3484 3491 1
3484 3492 1
3484 3493 1
3485 3488 1
3485 3489 1
3485 3490 1
3486 3488 1
3486 3489 1
3486 3490 1
3487 3494 1
3487 3495 1
3487 3496 1
3488 3491 1
3488 3492 1
3488 3493 1
3489 3491 1
3489 3492 1
3489 3493 1
3491 3494 1
3491 3495 1
3491 3496 1
3492 3494 1
3492 3495 1
3492 3496 1
3497 3502 1
3497 3505 1
3498 3503 1
3498 3504 1
3498 3506 1
3498 3507 1
3499 3502 1
3499 3505 1
3500 3502 1
3500 3505 1
3501 3508 1
3502 3506 1
3502 3507 1
3503 3505 1
3504 3505 1
3505 3509 1
3505 3510 1
3505 3511 1
3506 3508 1
3507 3512 1
3507 3513 1
3507 3520 1
3508 3514 1
3508 3515 1
3508 3516 1
3508 3521 1
3508 3522 1
3508 3523 1
3509 3512 1
3509 3513 1
3509 3520 1
3510 3512 1
3510 3513 1
3510 3520 1
3511 3517 1
3511 3518 1
3511 3519 1
3511 3524 1
3511 3525 1
3511 3526 1
3512 3514 1
3512 3515 1
3512 3516 1
3512 3521 1
3512 3522 1
3512 3523 1
3513 3521 1
3513 3522 1
3513 3523 1
3514 3517 1
3514 3518 1
3514 3519 1
3514 3520 1
3515 3517 1
3515 3518 1
3515 3519 1
3515 3520 1
3516 3520 1
3520 3527 1
3520 3528 1
3520 3529 1
3521 3524 1
3521 3525 1
3521 3526 1
3522 3524 1
3522 3525 1
3522 3526 1
3523 3530 1
3523 3531 1
3523 3532 1
3524 3527 1
3524 3528 1
3524 3529 1
3525 3527 1
3525 3528 1
3525 3529 1
3527 3530 1
3527 3531 1
3527 3532 1
3528 3530 1
3528 3531 1
3528 3532 1
3533 3538 1
3533 3541 1
3534 3539 1
3534 3540 1
3534 3542 1
3534 3543 1
3535 3538 1
3535 3541 1
3536 3538 1
3536 3541 1
3537 3544 1
3538 3542 1
3538 3543 1
3539 3541 1
3540 3541 1
3541 3545 1
3541 3546 1
3541 3547 1
3542 3544 1
3543 3548 1
3543 3549 1
3543 3556 1
3544 3550 1
3544 3551 1
3544 3552 1
3544 3557 1
3544 3558 1
3544 3559 1
3545 3548 1
3545 3549 1
3545 3556 1
3546 3548 1
3546 3549 1
3546 3556 1
3547 3553 1
3547 3554 1
3547 3555 1
3547 3560 1
3547 3561 1
3547 3562 1
3548 3550 1
3548 3551 1
3548 3552 1
3548 3557 1
3548 3558 1
3548 3559 1
3549 3557 1
3549 3558 1
3549 3559 1
3550 3553 1
3550 3554 1
3550 3555 1
3550 3556 1
3551 3553 1
3551 3554 1
3551 3555 1
3551 3556 1
3552 3556 1
3556 3563 1
3556 3564 1
3556 3565 1
3557 3560 1
3557 3561 1
3557 3562 1
3558 3560 1
3558 3561 1
3558 3562 1
3559 3566 1
3559 3567 1
3559 3568 1
3560 3563 1
3560 3564 1
3560 3565 1
3561 3563 1
3561 3564 1
3561 3565 1
3563 3566 1
3563 3567 1
3563 3568 1
3564 3566 1
3564 3567 1
3564 3568 1
3569 3574 1
3569 3577 1
3570 3575 1
3570 3576 1
3570 3578 1
3570 3579 1
3571 3574 1
3571 3577 1
3572 3574 1
3572 3577 1
3573 3580 1
3574 3578 1
3574 3579 1
3575 3577 1
3576 3577 1
3577 3581 1
3577 3582 1
3577 3583 1
3578 3580 1
3579 3584 1
3579 3585 1
3579 3592 1
3580 3586 1
3580 3587 1
3580 3588 1
3580 3593 1
3580 3594 1
3580 3595 1
3581 3584 1
3581 3585 1
3581 3592 1
3582 3584 1
3582 3585 1
3582 3592 1
3583 3589 1
3583 3590 1
3583 3591 1
3583 3596 1
3583 3597 1
3583 3598 1
3584 3586 1
3584 3587 1
3584 3588 1
3584 3593 1
3584 3594 1
3584 3595 1
3585 3593 1
3585 3594 1
3585 3595 1
3586 3589 1
3586 3590 1
3586 3591 1
3586 3592 1
3587 3589 1
3587 3590 1
3587 3591 1
3587 3592 1
3588 3592 1
3592 3599 1
3592 3600 1
3592 3601 1
3593 3596 1
3593 3597 1
3593 3598 1
3594 3596 1
3594 3597 1
3594 3598 1
3595 3602 1
3595 3603 1
3595 3604 1
3596 3599 1
3596 3600 1
3596 3601 1
3597 3599 1
3597 3600 1
3597 3601 1
3599 3602 1
3599 3603 1
3599 3604 1
3600 3602 1
3600 3603 1
3600 3604 1
3605 3610 1
3605 3613 1
3606 3611 1
3606 3612 1
3606 3614 1
3606 3615 1
3607 3610 1
3607 3613 1
3608 3610 1
3608 3613 1
3609 3616 1
3610 3614 1
3610 3615 1
3611 3613 1
3612 3613 1
3613 3617 1
3613 3618 1
3613 3619 1
3614 3616 1
3615 3620 1
3615 3621 1
3615 3622 1
3616 3623 1
3616 3624 1
3616 3625 1
3617 3620 1
3617 3621 1
3617 3622 1
3618 3620 1
3618 3621 1
3618 3622 1
3619 3626 1
3619 3627 1
3619 3628 1
3620 3623 1
3620 3624 1
3620 3625 1
3621 3623 1
3621 3624 1
3621 3625 1
3622 3629 1
3622 3630 1
3622 3631 1
3623 3626 1
3623 3627 1
3623 3628 1
3624 3626 1
3624 3627 1
3624 3628 1
3625 3632 1
3625 3633 1
3625 3634 1
3626 3629 1
3626 3630 1
3626 3631 1
3627 3629 1
3627 3630 1
3627 3631 1
3628 3635 1
3628 3636 1
3628 3637 1
3629 3632 1
3629 3633 1
3629 3634 1
3630 3632 1
3630 3633 1
3630 3634 1
3631 3638 1
3631 3639 1
3631 3640 1
3632 3635 1
3632 3636 1
3632 3637 1
3633 3635 1
3633 3636 1
3633 3637 1
3634 3641 1
3634 3642 1
3634 3643 1
3635 3638 1
3635 3639 1
3635 3640 1
3636 3638 1
3636 3639 1
3636 3640 1
3637 3644 1
3637 3645 1
3637 3646 1
3638 3641 1
3638 3642 1
3638 3643 1
3639 3641 1
3639 3642 1
3639 3643 1
3640 3647 1
3640 3648 1
3640 3649 1
3641 3644 1
3641 3645 1
3641 3646 1
3642 3644 1
3642 3645 1
3642 3646 1
3643 3650 1
3643 3651 1
3643 3652 1
3644 3647 1
3644 3648 1
3644 3649 1
3645 3647 1
3645 3648 1
3645 3649 1
3647 3650 1
3647 3651 1
3647 3652 1
3648 3650 1
3648 3651 1
3648 3652 1
3653 3658 1
3653 3661 1
3654 3659 1
3654 3660 1
3654 3662 1
3654 3663 1
3655 3658 1
3655 3661 1
3656 3658 1
3656 3661 1
3657 3664 1
3658 3662 1
3658 3663 1
3659 3661 1
3660 3661 1
3661 3665 1
3661 3666 1
3661 3667 1
3662 3664 1
3663 3668 1
3663 3669 1
3663 3670 1
3664 3671 1
3664 3672 1
3664 3673 1
3665 3668 1
3665 3669 1
3665 3670 1
3666 3668 1
3666 3669 1
3666 3670 1
3667 3674 1
3667 3675 1
3667 3676 1
3668 3671 1
3668 3672 1
3668 3673 1
3669 3671 1
3669 3672 1
3669 3673 1
3670 3677 1
3670 3678 1
3670 3679 1
3671 3674 1
3671 3675 1
3671 3676 1
3672 3674 1
3672 3675 1
3672 3676 1
3673 3680 1
3673 3681 1
3673 3682 1
3674 3677 1
3674 3678 1
3674 3679 1
3675 3677 1
3675 3678 1
3675 3679 1
3676 3683 1
3676 3684 1
3676 3685 1
3677 3680 1
3677 3681 1
3677 3682 1
3678 3680 1
3678 3681 1
3678 3682 1
3679 3686 1
3679 3687 1
3679 3688 1
3680 3683 1
3680 3684 1
3680 3685 1
3681 3683 1
3681 3684 1
3681 3685 1
3682 3689 1
3682 3690 1
3682 3691 1
3683 3686 1
3683 3687 1
3683 3688 1
3684 3686 1
3684 3687 1
3684 3688 1
3685 3692 1
3685 3693 1
3685 3694 1
3686 3689 1
3686 3690 1
3686 3691 1
3687 3689 1
3687 3690 1
3687 3691 1
3688 3695 1
3688 3696 1
3688 3697 1
3689 3692 1
3689 3693 1
3689 3694 1
3690 3692 1
3690 3693 1
3690 3694 1
3691 3698 1
3691 3699 1
3691 3700 1
3692 3695 1
3692 3696 1
3692 3697 1
3693 3695 1
3693 3696 1
3693 3697 1
3694 3701 1
3694 3702 1
3694 3703 1
3695 3698 1
3695 3699 1
3695 3700 1
3696 3698 1
3696 3699 1
3696 3700 1
3697 3704 1
3697 3705 1
3697 3706 1
3698 3701 1
3698 3702 1
3698 3703 1
3699 3701 1
3699 3702 1
3699 3703 1
3700 3707 1
3700 3708 1
3700 3709 1
3701 3704 1
3701 3705 1
3701 3706 1
3702 3704 1
3702 3705 1
3702 3706 1
3703 3710 1
3703 3711 1
3703 3712 1
3704 3707 1
3704 3708 1
3704 3709 1
3705 3707 1
3705 3708 1
3705 3709 1
3706 3713 1
3706 3714 1
3706 3715 1
3707 3710 1
3707 3711 1
3707 3712 1
3708 3710 1
3708 3711 1
3708 3712 1
3709 3716 1
3709 3717 1
3709 3718 1
3710 3713 1
3710 3714 1
3710 3715 1
3711 3713 1
3711 3714 1
3711 3715 1
3713 3716 1
3713 3717 1
3713 3718 1
3714 3716 1
3714 3717 1
3714 3718 1
3719 3724 1
3719 3727 1
3720 3725 1
3720 3726 1
3720 3728 1
3720 3729 1
3721 3724 1
3721 3727 1
3722 3724 1
3722 3727 1
3723 3730 1
3724 3728 1
3724 3729 1
3725 3727 1
3726 3727 1
3727 3731 1
3727 3732 1
3727 3733 1
3728 3730 1
3729 3734 1
3729 3735 1
3729 3742 1
3730 3736 1
3730 3737 1
3730 3738 1
3730 3743 1
3730 3744 1
3730 3745 1
3731 3734 1
3731 3735 1
3731 3742 1
3732 3734 1
3732 3735 1
3732 3742 1
3733 3739 1
3733 3740 1
3733 3741 1
3733 3746 1
3733 3747 1
3733 3748 1
3734 3736 1
3734 3737 1
3734 3738 1
3734 3743 1
3734 3744 1
3734 3745 1
3735 3743 1
3735 3744 1
3735 3745 1
3736 3739 1
3736 3740 1
3736 3741 1
3736 3742 1
3737 3739 1
3737 3740 1
3737 3741 1
3737 3742 1
3738 3742 1
3742 3749 1
3742 3750 1
3742 3751 1
3743 3746 1
3743 3747 1
3743 3748 1
3744 3746 1
3744 3747 1
3744 3748 1
3745 3752 1
3745 3753 1
3745 3754 1
3746 3749 1
3746 3750 1
3746 3751 1
3747 3749 1
3747 3750 1
3747 3751 1
3749 3752 1
3749 3753 1
3749 3754 1
3750 3752 1
3750 3753 1
3750 3754 1
3755 3760 1
3755 3763 1
3756 3761 1
3756 3762 1
3756 3764 1
3756 3765 1
3757 3760 1
3757 3763 1
3758 3760 1
3758 3763 1
3759 3766 1
3760 3764 1
3760 3765 1
3761 3763 1
3762 3763 1
3763 3767 1
3763 3768 1
3763 3769 1
3764 3766 1
3765 3770 1
3765 3771 1
3765 3778 1
3766 3772 1
3766 3773 1
3766 3774 1
3766 3779 1
3766 3780 1
3766 3781 1
3767 3770 1
3767 3771 1
3767 3778 1
3768 3770 1
3768 3771 1
3768 3778 1
3769 3775 1
3769 3776 1
3769 3777 1
3769 3782 1
3769 3783 1
3769 3784 1
3770 3772 1
3770 3773 1
3770 3774 1
3770 3779 1
3770 3780 1
3770 3781 1
3771 3779 1
3771 3780 1
3771 3781 1
3772 3775 1
3772 3776 1
3772 3777 1
3772 3778 1
3773 3775 1
3773 3776 1
3773 3777 1
3773 3778 1
3774 3778 1
3778 3785 1
3778 3786 1
3778 3787 1
3779 3782 1
3779 3783 1
3779 3784 1
3780 3782 1
3780 3783 1
3780 3784 1
3781 3788 1
3781 3789 1
3781 3790 1
3782 3785 1
3782 3786 1
3782 3787 1
3783 3785 1
3783 3786 1
3783 3787 1
3785 3788 1
3785 3789 1
3785 3790 1
3786 3788 1
3786 3789 1
3786 3790 1
3791 3796 1
3791 3799 1
3792 3797 1
3792 3798 1
3792 3800 1
3792 3801 1
3793 3796 1
3793 3799 1
3794 3796 1
3794 3799 1
3795 3802 1
3796 3800 1
3796 3801 1
3797 3799 1
3798 3799 1
3799 3803 1
3799 3804 1
3799 3805 1
3800 3802 1
3801 3806 1
3801 3807 1
3801 3808 1
3802 3809 1
3802 3810 1
3802 3811 1
3803 3806 1
3803 3807 1
3803 3808 1
3804 3806 1
3804 3807 1
3804 3808 1
3805 3812 1
3805 3813 1
3805 3814 1
3806 3809 1
3806 3810 1
3806 3811 1
3807 3809 1
3807 3810 1
3807 3811 1
3808 3815 1
3808 3816 1
3808 3817 1
3809 3812 1
3809 3813 1
3809 3814 1
3810 3812 1
3810 3813 1
3810 3814 1
3811 3818 1
3811 3819 1
3811 3820 1
3812 3815 1
3812 3816 1
3812 3817 1
3813 3815 1
3813 3816 1
3813 3817 1
3814 3821 1
3814 3822 1
3814 3823 1
3815 3818 1
3815 3819 1
3815 3820 1
3816 3818 1
3816 3819 1
3816 3820 1
3817 3824 1
3817 3825 1
3817 3826 1
3818 3821 1
3818 3822 1
3818 3823 1
3819 3821 1
3819 3822 1
3819 3823 1
3820 3827 1
3820 3828 1
3820 3829 1
3821 3824 1
3821 3825 1
3821 3826 1
3822 3824 1
3822 3825 1
3822 3826 1
3823 3830 1
3823 3831 1
3823 3832 1
3824 3827 1
3824 3828 1
3824 3829 1
3825 3827 1
3825 3828 1
3825 3829 1
3826 3833 1
3826 3834 1
3826 3835 1
3827 3830 1
3827 3831 1
3827 3832 1
3828 3830 1
3828 3831 1
3828 3832 1
3829 3836 1
3829 3837 1
3829 3838 1
3830 3833 1
3830 3834 1
3830 3835 1
3831 3833 1
3831 3834 1
3831 3835 1
3833 3836 1
3833 3837 1
3833 3838 1
3834 3836 1
3834 3837 1
3834 3838 1
3839 3844 1
3839 3847 1
3840 3845 1
3840 3846 1
3840 3848 1
3840 3849 1
3841 3844 1
3841 3847 1
3842 3844 1
3842 3847 1
3843 3850 1
3844 3848 1
3844 3849 1
3845 3847 1
3846 3847 1
3847 3851 1
3847 3852 1
3847 3853 1
3848 3850 1
3849 3854 1
3849 3855 1
3849 3862 1
3850 3856 1
3850 3857 1
3850 3858 1
3850 3863 1
3850 3864 1
3850 3865 1
3851 3854 1
3851 3855 1
3851 3862 1
3852 3854 1
3852 3855 1
3852 3862 1
3853 3859 1
3853 3860 1
3853 3861 1
3853 3866 1
3853 3867 1
3853 3868 1
3854 3856 1
3854 3857 1
3854 3858 1
3854 3863 1
3854 3864 1
3854 3865 1
3855 3863 1
3855 3864 1
3855 3865 1
3856 3859 1
3856 3860 1
3856 3861 1
3856 3862 1
3857 3859 1
3857 3860 1
3857 3861 1
3857 3862 1
3858 3862 1
3862 3869 1
3862 3870 1
3862 3871 1
3863 3866 1
3863 3867 1
3863 3868 1
3864 3866 1
3864 3867 1
3864 3868 1
3865 3872 1
3865 3873 1
3865 3874 1
3866 3869 1
3866 3870 1
3866 3871 1
3867 3869 1
3867 3870 1
3867 3871 1
3869 3872 1
3869 3873 1
3869 3874 1
3870 3872 1
3870 3873 1
3870 3874 1
3875 3880 1
3875 3883 1
3876 3881 1
3876 3882 1
3876 3884 1
3876 3885 1
3877 3880 1
3877 3883 1
3878 3880 1
3878 3883 1
3879 3886 1
3880 3884 1
3880 3885 1
3881 3883 1
3882 3883 1
3883 3887 1
3883 3888 1
3883 3889 1
3884 3886 1
3885 3890 1
3885 3891 1
3885 3892 1
3886 3893 1
3886 3894 1
3886 3895 1
3887 3890 1
3887 3891 1
3887 3892 1
3888 3890 1
3888 3891 1
3888 3892 1
3889 3896 1
3889 3897 1
3889 3898 1
3890 3893 1
3890 3894 1
3890 3895 1
3891 3893 1
3891 3894 1
3891 3895 1
3892 3899 1
3892 3900 1
3892 3901 1
3893 3896 1
3893 3897 1
3893 3898 1
3894 3896 1
3894 3897 1
3894 3898 1
3895 3902 1
3895 3903 1
3895 3904 1
3896 3899 1
3896 3900 1
3896 3901 1
3897 3899 1
3897 3900 1
3897 3901 1
3898 3905 1
3898 3906 1
3898 3907 1
3899 3902 1
3899 3903 1
3899 3904 1
3900 3902 1
3900 3903 1
3900 3904 1
3901 3908 1
3901 3909 1
3901 3910 1
3902 3905 1
3902 3906 1
3902 3907 1
3903 3905 1
3903 3906 1
3903 3907 1
3904 3911 1
3904 3912 1
3904 3913 1
3905 3908 1
3905 3909 1
3905 3910 1
3906 3908 1
3906 3909 1
3906 3910 1
3907 3914 1
3907 3915 1
3907 3916 1
3908 3911 1
3908 3912 1
3908 3913 1
3909 3911 1
3909 3912 1
3909 3913 1
3910 3917 1
3910 3918 1
3910 3919 1
3911 3914 1
3911 3915 1
3911 3916 1
3912 3914 1
3912 3915 1
3912 3916 1
3913 3920 1
3913 3921 1
3913 3922 1
3914 3917 1
3914 3918 1
3914 3919 1
3915 3917 1
3915 3918 1
3915 3919 1
3917 3920 1
3917 3921 1
3917 3922 1
3918 3920 1
3918 3921 1
3918 3922 1
3923 3928 1
3923 3931 1
3924 3929 1
3924 3930 1
3924 3932 1
3924 3933 1
3925 3928 1
3925 3931 1
3926 3928 1
3926 3931 1
3927 3934 1
3928 3932 1
3928 3933 1
3929 3931 1
3930 3931 1
3931 3935 1
3931 3936 1
3931 3937 1
3932 3934 1
3933 3938 1
3933 3939 1
3933 3940 1
3934 3941 1
3934 3942 1
3934 3943 1
3935 3938 1
3935 3939 1
3935 3940 1
3936 3938 1
3936 3939 1
3936 3940 1
3937 3944 1
3937 3945 1
3937 3946 1
3938 3941 1
3938 3942 1
3938 3943 1
3939 3941 1
3939 3942 1
3939 3943 1
3940 3947 1
3940 3948 1
3940 3949 1
3941 3944 1
3941 3945 1
3941 3946 1
3942 3944 1
3942 3945 1
3942 3946 1
3943 3950 1
3943 3951 1
3943 3952 1
3944 3947 1
3944 3948 1
3944 3949 1
3945 3947 1
3945 3948 1
3945 3949 1
3946 3953 1
3946 3954 1
3946 3955 1
3947 3950 1
3947 3951 1
3947 3952 1
3948 3950 1
3948 3951 1
3948 3952 1
3949 3956 1
3949 3957 1
3949 3958 1
3950 3953 1
3950 3954 1
3950 3955 1
3951 3953 1
3951 3954 1
3951 3955 1
3952 3959 1
3952 3960 1
3952 3961 1
3953 3956 1
3953 3957 1
3953 3958 1
3954 3956 1
3954 3957 1
3954 3958 1
3955 3962 1
3955 3963 1
3955 3964 1
3956 3959 1
3956 3960 1
3956 3961 1
3957 3959 1
3957 3960 1
3957 3961 1
3958 3965 1
3958 3966 1
3958 3967 1
3959 3962 1
3959 3963 1
3959 3964 1
3960 3962 1
3960 3963 1
3960 3964 1
3961 3968 1
3961 3969 1
3961 3970 1
3962 3965 1
3962 3966 1
3962 3967 1
3963 3965 1
3963 3966 1
3963 3967 1
3965 3968 1
3965 3969 1
3965 3970 1
3966 3968 1
3966 3969 1
3966 3970 1
3971 3976 1
3971 3979 1
3972 3977 1
3972 3978 1
3972 3980 1
3972 3981 1
3973 3976 1
3973 3979 1
3974 3976 1
3974 3979 1
3975 3982 1
3976 3980 1
3976 3981 1
3977 3979 1
3978 3979 1
3979 3983 1
3979 3984 1
3979 3985 1
3980 3982 1
3981 3986 1
3981 3987 1
3981 3994 1
3982 3988 1
3982 3989 1
3982 3990 1
3982 3995 1
3982 3996 1
3982 3997 1
3983 3986 1
3983 3987 1
3983 3994 1
3984 3986 1
3984 3987 1
3984 3994 1
3985 3991 1
3985 3992 1
3985 3993 1
3985 3998 1
3985 3999 1
3985 4000 1
3986 3988 1
3986 3989 1
3986 3990 1
3986 3995 1
3986 3996 1
3986 3997 1
3987 3995 1
3987 3996 1
3987 3997 1
3988 3991 1
3988 3992 1
3988 3993 1
3988 3994 1
3989 3991 1
3989 3992 1
3989 3993 1
3989 3994 1
3990 3994 1
3994 4001 1
3994 4002 1
3994 4003 1
3995 3998 1
3995 3999 1
3995 4000 1
3996 3998 1
3996 3999 1
3996 4000 1
3997 4004 1
3997 4005 1
3997 4006 1
3998 4001 1
3998 4002 1
3998 4003 1
3999 4001 1
3999 4002 1
3999 4003 1
4001 4004 1
4001 4005 1
4001 4006 1
4002 4004 1
4002 4005 1
4002 4006 1
4007 4012 1
4007 4015 1
4008 4013 1
4008 4014 1
4008 4016 1
4008 4017 1
4009 4012 1
4009 4015 1
4010 4012 1
4010 4015 1
4011 4018 1
4012 4016 1
4012 4017 1
4013 4015 1
4014 4015 1
4015 4019 1
4015 4020 1
4015 4021 1
4016 4018 1
4017 4022 1
4017 4023 1
4017 4024 1
4018 4025 1
4018 4026 1
4018 4027 1
4019 4022 1
4019 4023 1
4019 4024 1
4020 4022 1
4020 4023 1
4020 4024 1
4021 4028 1
4021 4029 1
4021 4030 1
4022 4025 1
4022 4026 1
4022 4027 1
4023 4025 1
4023 4026 1
4023 4027 1
4024 4031 1
4024 4032 1
4024 4033 1
4025 4028 1
4025 4029 1
4025 4030 1
4026 4028 1
4026 4029 1
4026 4030 1
4027 4034 1
4027 4035 1
4027 4036 1
4028 4031 1
4028 4032 1
4028 4033 1
4029 4031 1
4029 4032 1
4029 4033 1
4030 4037 1
4030 4038 1
4030 4039 1
4031 4034 1
4031 4035 1
4031 4036 1
4032 4034 1
4032 4035 1
4032 4036 1
4033 4040 1
4033 4041 1
4033 4042 1
4034 4037 1
4034 4038 1
4034 4039 1
4035 4037 1
4035 4038 1
4035 4039 1
4036 4043 1
4036 4044 1
4036 4045 1
4037 4040 1
4037 4041 1
4037 4042 1
4038 4040 1
4038 4041 1
4038 4042 1
4039 4046 1
4039 4047 1
4039 4048 1
4040 4043 1
4040 4044 1
4040 4045 1
4041 4043 1
4041 4044 1
4041 4045 1
4042 4049 1
4042 4050 1
4042 4051 1
4043 4046 1
4043 4047 1
4043 4048 1
4044 4046 1
4044 4047 1
4044 4048 1
4045 4052 1
4045 4053 1
4045 4054 1
4046 4049 1
4046 4050 1
4046 4051 1
4047 4049 1
4047 4050 1
4047 4051 1
4048 4055 1
4048 4056 1
4048 4057 1
4049 4052 1
4049 4053 1
4049 4054 1
4050 4052 1
4050 4053 1
4050 4054 1
4051 4058 1
4051 4059 1
4051 4060 1
4052 4055 1
4052 4056 1
4052 4057 1
4053 4055 1
4053 4056 1
4053 4057 1
4054 4061 1
4054 4062 1
4054 4063 1
4055 4058 1
4055 4059 1
4055 4060 1
4056 4058 1
4056 4059 1
4056 4060 1
4057 4064 1
4057 4065 1
4057 4066 1
4058 4061 1
4058 4062 1
4058 4063 1
4059 4061 1
4059 4062 1
4059 4063 1
4060 4067 1
4060 4068 1
4060 4069 1
4061 4064 1
4061 4065 1
4061 4066 1
4062 4064 1
4062 4065 1
4062 4066 1
4063 4070 1
4063 4071 1
4063 4072 1
4064 4067 1
4064 4068 1
4064 4069 1
4065 4067 1
4065 4068 1
4065 4069 1
4067 4070 1
4067 4071 1
4067 4072 1
4068 4070 1
4068 4071 1
4068 4072 1
4073 4078 1
4073 4081 1
4074 4079 1
4074 4080 1
4074 4082 1
4074 4083 1
4075 4078 1
4075 4081 1
4076 4078 1
4076 4081 1
4077 4084 1
4078 4082 1
4078 4083 1
4079 4081 1
4080 4081 1
4081 4085 1
4081 4086 1
4081 4087 1
4082 4084 1
4083 4088 1
4083 4089 1
4083 4090 1
4084 4091 1
4084 4092 1
4084 4093 1
4085 4088 1
4085 4089 1
4085 4090 1
4086 4088 1
4086 4089 1
4086 4090 1
4087 4094 1
4087 4095 1
4087 4096 1
4088 4091 1
4088 4092 1
4088 4093 1
4089 4091 1
4089 4092 1
4089 4093 1
4090 4097 1
4090 4098 1
4090 4099 1
4091 4094 1
4091 4095 1
4091 4096 1
4092 4094 1
4092 4095 1
4092 4096 1
4093 4100 1
4093 4101 1
4093 4102 1
4094 4097 1
4094 4098 1
4094 4099 1
4095 4097 1
4095 4098 1
4095 4099 1
4096 4103 1
4096 4104 1
4096 4105 1
4097 4100 1
4097 4101 1
4097 4102 1
4098 4100 1
4098 4101 1
4098 4102 1
4099 4106 1
4099 4107 1
4099 4108 1
4100 4103 1
4100 4104 1
4100 4105 1
4101 4103 1
4101 4104 1
4101 4105 1
4102 4109 1
4102 4110 1
4102 4111 1
4103 4106 1
4103 4107 1
4103 4108 1
4104 4106 1
4104 4107 1
4104 4108 1
4105 4112 1
4105 4113 1
4105 4114 1
4106 4109 1
4106 4110 1
4106 4111 1
4107 4109 1
4107 4110 1
4107 4111 1
4108 4115 1
4108 4116 1
4108 4117 1
4109 4112 1
4109 4113 1
4109 4114 1
4110 4112 1
4110 4113 1
4110 4114 1
4111 4118 1
4111 4119 1
4111 4120 1
4112 4115 1
4112 4116 1
4112 4117 1
4113 4115 1
4113 4116 1
4113 4117 1
4115 4118 1
4115 4119 1
4115 4120 1
4116 4118 1
4116 4119 1
4116 4120 1
4121 4126 1
4121 4129 1
4122 4127 1
4122 4128 1
4122 4130 1
4122 4131 1
4123 4126 1
4123 4129 1
4124 4126 1
4124 4129 1
4125 4132 1
4126 4130 1
4126 4131 1
4127 4129 1
4128 4129 1
4129 4133 1
4129 4134 1
4129 4135 1
4130 4132 1
4131 4136 1
4131 4137 1
4131 4138 1
4132 4139 1
4132 4140 1
4132 4141 1
4133 4136 1
4133 4137 1
4133 4138 1
4134 4136 1
4134 4137 1
4134 4138 1
4135 4142 1
4135 4143 1
4135 4144 1
4136 4139 1
4136 4140 1
4136 4141 1
4137 4139 1
4137 4140 1
4137 4141 1
4138 4145 1
4138 4146 1
4138 4147 1
4139 4142 1
4139 4143 1
4139 4144 1
4140 4142 1
4140 4143 1
4140 4144 1
4141 4148 1
4141 4149 1
4141 4150 1
4142 4145 1
4142 4146 1
4142 4147 1
4143 4145 1
4143 4146 1
4143 4147 1
4144 4151 1
4144 4152 1
4144 4153 1
4145 4148 1
4145 4149 1
4145 4150 1
4146 4148 1
4146 4149 1
4146 4150 1
4147 4154 1
4147 4155 1
4147 4156 1
4148 4151 1
4148 4152 1
4148 4153 1
4149 4151 1
4149 4152 1
4149 4153 1
4150 4157 1
4150 4158 1
4150 4159 1
4151 4154 1
4151 4155 1
4151 4156 1
4152 4154 1
4152 4155 1
4152 4156 1
4153 4160 1
4153 4161 1
4153 4162 1
4154 4157 1
4154 4158 1
4154 4159 1
4155 4157 1
4155 4158 1
4155 4159 1
4156 4163 1
4156 4164 1
4156 4165 1
4157 4160 1
4157 4161 1
4157 4162 1
4158 4160 1
4158 4161 1
4158 4162 1
4159 4166 1
4159 4167 1
4159 4168 1
4160 4163 1
4160 4164 1
4160 4165 1
4161 4163 1
4161 4164 1
4161 4165 1
4162 4169 1
4162 4170 1
4162 4171 1
4163 4166 1
4163 4167 1
4163 4168 1
4164 4166 1
4164 4167 1
4164 4168 1
4165 4172 1
4165 4173 1
4165 4174 1
4166 4169 1
4166 4170 1
4166 4171 1
4167 4169 1
4167 4170 1
4167 4171 1
4168 4175 1
4168 4176 1
4168 4177 1
4169 4172 1
4169 4173 1
4169 4174 1
4170 4172 1
4170 4173 1
4170 4174 1
4171 4178 1
4171 4179 1
4171 4180 1
4172 4175 1
4172 4176 1
4172 4177 1
4173 4175 1
4173 4176 1
4173 4177 1
4174 4181 1
4174 4182 1
4174 4183 1
4175 4178 1
4175 4179 1
4175 4180 1
4176 4178 1
4176 4179 1
4176 4180 1
4177 4184 1
4177 4185 1
4177 4186 1
4178 4181 1
4178 4182 1
4178 4183 1
4179 4181 1
4179 4182 1
4179 4183 1
4181 4184 1
4181 4185 1
4181 4186 1
4182 4184 1
4182 4185 1
4182 4186 1

[ angles ]
   2    1    3 1 107.800 276.144
   2    1    4 1 107.800 276.144
   2    1   12 1 110.700000 313.800000
   3    1    4 1 107.800 276.144
   3    1   12 1 110.700000 313.800000
   4    1   12 1 110.700000 313.800000
   5    6    7 1 107.800 276.144
   5    6    8 1 107.800 276.144
   5    6    9 1 109.500 292.880
   7    6    8 1 107.800 276.144
   7    6    9 1 109.500 292.880
   8    6    9 1 109.500 292.880
   6    9   10 1 116.900 694.544
   9   10   11 1 123.400 694.544
   9   10   12 1 111.400 677.808
  11   10   12 1 125.300 669.440
   1   12   10 1 112.700000 488.273000
   1   12   13 1 112.700000 488.273000
   1   12   16 1 112.700000 488.273000
  10   12   13 1 120.700 711.280
  10   12   16 1 119.700 585.760
  13   12   16 1 124.000 585.760
  12   13   14 1 120.000 292.880
  12   13   15 1 120.000 292.880
  12   13   27 1 112.700000 488.273000
  14   13   15 1 117.000 292.880
  14   13   27 1 110.700000 313.800000
  15   13   27 1 110.700000 313.800000
  12   16   17 1 109.500 292.880
  12   16   18 1 109.500 292.880
  12   16   19 1 109.500 292.880
  17   16   18 1 107.800 276.144
  17   16   19 1 107.800 276.144
  18   16   19 1 107.800 276.144
  20   21   22 1 107.800 276.144
  20   21   23 1 107.800 276.144
  20   21   24 1 109.500 292.880
  22   21   23 1 107.800 276.144
  22   21   24 1 109.500 292.880
  23   21   24 1 109.500 292.880
  21   24   25 1 116.900 694.544
  24   25   26 1 123.400 694.544
  24   25   27 1 111.400 677.808
  26   25   27 1 125.300 669.440
  13   27   25 1 112.700000 488.273000
  13   27   28 1 112.700000 488.273000
  13   27   31 1 112.700000 488.273000
  25   27   28 1 120.700 711.280
  25   27   31 1 119.700 585.760
  28   27   31 1 124.000 585.760
  27   28   29 1 120.000 292.880
  27   28   30 1 120.000 292.880
  27   28   42 1 112.700000 488.273000
  29   28   30 1 117.000 292.880
  29   28   42 1 110.700000 313.800000
  30   28   42 1 110.700000 313.800000
  27   31   32 1 109.500 292.880
  27   31   33 1 109.500 292.880
  27   31   34 1 109.500 292.880
  32   31   33 1 107.800 276.144
  32   31   34 1 107.800 276.144
  33   31   34 1 107.800 276.144
  35   36   37 1 107.800 276.144
  35   36   38 1 107.800 276.144
  35   36   39 1 109.500 292.880
  37   36   38 1 107.800 276.144
  37   36   39 1 109.500 292.880
  38   36   39 1 109.500 292.880
  36   39   40 1 116.900 694.544
  39   40   41 1 123.400 694.544
  39   40   42 1 111.400 677.808
  41   40   42 1 125.300 669.440
  28   42   40 1 112.700000 488.273000
  28   42   43 1 112.700000 488.273000
  28   42   46 1 112.700000 488.273000
  40   42   43 1 120.700 711.280
  40   42   46 1 119.700 585.760
  43   42   46 1 124.000 585.760
  42   43   44 1 120.000 292.880
  42   43   45 1 120.000 292.880
  42   43   57 1 112.700000 488.273000
  44   43   45 1 117.000 292.880
  44   43   57 1 110.700000 313.800000
  45   43   57 1 110.700000 313.800000
  42   46   47 1 109.500 292.880
  42   46   48 1 109.500 292.880
  42   46   49 1 109.500 292.880
  47   46   48 1 107.800 276.144
  47   46   49 1 107.800 276.144
  48   46   49 1 107.800 276.144
  50   51   52 1 107.800 276.144
  50   51   53 1 107.800 276.144
  50   51   54 1 109.500 292.880
  52   51   53 1 107.800 276.144
  52   51   54 1 109.500 292.880
  53   51   54 1 109.500 292.880
  51   54   55 1 116.900 694.544
  54   55   56 1 123.400 694.544
  54   55   57 1 111.400 677.808
  56   55   57 1 125.300 669.440
  43   57   55 1 112.700000 488.273000
  43   57   58 1 112.700000 488.273000
  43   57   61 1 112.700000 488.273000
  55   57   58 1 120.700 711.280
  55   57   61 1 119.700 585.760
  58   57   61 1 124.000 585.760
  57   58   59 1 120.000 292.880
  57   58   60 1 120.000 292.880
  57   58   72 1 112.700000 488.273000
  59   58   60 1 117.000 292.880
  59   58   72 1 110.700000 313.800000
  60   58   72 1 110.700000 313.800000
  57   61   62 1 109.500 292.880
  57   61   63 1 109.500 292.880
  57   61   64 1 109.500 292.880
  62   61   63 1 107.800 276.144
  62   61   64 1 107.800 276.144
  63   61   64 1 107.800 276.144
  65   66   67 1 107.800 276.144
  65   66   68 1 107.800 276.144
  65   66   69 1 109.500 292.880
  67   66   68 1 107.800 276.144
  67   66   69 1 109.500 292.880
  68   66   69 1 109.500 292.880
  66   69   70 1 116.900 694.544
  69   70   71 1 123.400 694.544
  69   70   72 1 111.400 677.808
  71   70   72 1 125.300 669.440
  58   72   70 1 112.700000 488.273000
  58   72   73 1 112.700000 488.273000
  58   72   76 1 112.700000 488.273000
  70   72   73 1 120.700 711.280
  70   72   76 1 119.700 585.760
  73   72   76 1 124.000 585.760
  72   73   74 1 120.000 292.880
  72   73   75 1 120.000 292.880
  72   73   87 1 112.700000 488.273000
  74   73   75 1 117.000 292.880
  74   73   87 1 110.700000 313.800000
  75   73   87 1 110.700000 313.800000
  72   76   77 1 109.500 292.880
  72   76   78 1 109.500 292.880
  72   76   79 1 109.500 292.880
  77   76   78 1 107.800 276.144
  77   76   79 1 107.800 276.144
  78   76   79 1 107.800 276.144
  80   81   82 1 107.800 276.144
  80   81   83 1 107.800 276.144
  80   81   84 1 109.500 292.880
  82   81   83 1 107.800 276.144
  82   81   84 1 109.500 292.880
  83   81   84 1 109.500 292.880
  81   84   85 1 116.900 694.544
  84   85   86 1 123.400 694.544
  84   85   87 1 111.400 677.808
  86   85   87 1 125.300 669.440
  73   87   85 1 112.700000 488.273000
  73   87   88 1 112.700000 488.273000
  73   87   91 1 112.700000 488.273000
  85   87   88 1 120.700 711.280
  85   87   91 1 119.700 585.760
  88   87   91 1 124.000 585.760
  87   88   89 1 120.000 292.880
  87   88   90 1 120.000 292.880
  87   88  102 1 112.700000 488.273000
  89   88   90 1 117.000 292.880
  89   88  102 1 110.700000 313.800000
  90   88  102 1 110.700000 313.800000
  87   91   92 1 109.500 292.880
  87   91   93 1 109.500 292.880
  87   91   94 1 109.500 292.880
  92   91   93 1 107.800 276.144
  92   91   94 1 107.800 276.144
  93   91   94 1 107.800 276.144
  95   96   97 1 107.800 276.144
  95   96   98 1 107.800 276.144
  95   96   99 1 109.500 292.880
  97   96   98 1 107.800 276.144
  97   96   99 1 109.500 292.880
  98   96   99 1 109.500 292.880
  96   99  100 1 116.900 694.544
  99  100  101 1 123.400 694.544
  99  100  102 1 111.400 677.808
 101  100  102 1 125.300 669.440
  88  102  100 1 112.700000 488.273000
  88  102  103 1 112.700000 488.273000
  88  102  106 1 112.700000 488.273000
 100  102  103 1 120.700 711.280
 100  102  106 1 119.700 585.760
 103  102  106 1 124.000 585.760
 102  103  104 1 120.000 292.880
 102  103  105 1 120.000 292.880
 102  103  117 1 112.700000 488.273000
 104  103  105 1 117.000 292.880
 104  103  117 1 110.700000 313.800000
 105  103  117 1 110.700000 313.800000
 102  106  107 1 109.500 292.880
 102  106  108 1 109.500 292.880
 102  106  109 1 109.500 292.880
 107  106  108 1 107.800 276.144
 107  106  109 1 107.800 276.144
 108  106  109 1 107.800 276.144
 110  111  112 1 107.800 276.144
 110  111  113 1 107.800 276.144
 110  111  114 1 109.500 292.880
 112  111  113 1 107.800 276.144
 112  111  114 1 109.500 292.880
 113  111  114 1 109.500 292.880
 111  114  115 1 116.900 694.544
 114  115  116 1 123.400 694.544
 114  115  117 1 111.400 677.808
 116  115  117 1 125.300 669.440
 103  117  115 1 112.700000 488.273000
 103  117  118 1 112.700000 488.273000
 103  117  121 1 112.700000 488.273000
 115  117  118 1 120.700 711.280
 115  117  121 1 119.700 585.760
 118  117  121 1 124.000 585.760
 117  118  119 1 120.000 292.880
 117  118  120 1 120.000 292.880
 117  118  132 1 112.700000 488.273000
 119  118  120 1 117.000 292.880
 119  118  132 1 110.700000 313.800000
 120  118  132 1 110.700000 313.800000
 117  121  122 1 109.500 292.880
 117  121  123 1 109.500 292.880
 117  121  124 1 109.500 292.880
 122  121  123 1 107.800 276.144
 122  121  124 1 107.800 276.144
 123  121  124 1 107.800 276.144
 125  126  127 1 107.800 276.144
 125  126  128 1 107.800 276.144
 125  126  129 1 109.500 292.880
 127  126  128 1 107.800 276.144
 127  126  129 1 109.500 292.880
 128  126  129 1 109.500 292.880
 126  129  130 1 116.900 694.544
 129  130  131 1 123.400 694.544
 129  130  132 1 111.400 677.808
 131  130  132 1 125.300 669.440
 118  132  130 1 112.700000 488.273000
 118  132  133 1 112.700000 488.273000
 118  132  136 1 112.700000 488.273000
 130  132  133 1 120.700 711.280
 130  132  136 1 119.700 585.760
 133  132  136 1 124.000 585.760
 132  133  134 1 120.000 292.880
 132  133  135 1 120.000 292.880
 132  133  147 1 112.700000 488.273000
 134  133  135 1 117.000 292.880
 134  133  147 1 110.700000 313.800000
 135  133  147 1 110.700000 313.800000
 132  136  137 1 109.500 292.880
 132  136  138 1 109.500 292.880
 132  136  139 1 109.500 292.880
 137  136  138 1 107.800 276.144
 137  136  139 1 107.800 276.144
 138  136  139 1 107.800 276.144
 140  141  142 1 107.800 276.144
 140  141  143 1 107.800 276.144
 140  141  144 1 109.500 292.880
 142  141  143 1 107.800 276.144
 142  141  144 1 109.500 292.880
 143  141  144 1 109.500 292.880
 141  144  145 1 116.900 694.544
 144  145  146 1 123.400 694.544
 144  145  147 1 111.400 677.808
 146  145  147 1 125.300 669.440
 133  147  145 1 112.700000 488.273000
 133  147  148 1 112.700000 488.273000
 133  147  151 1 112.700000 488.273000
 145  147  148 1 120.700 711.280
 145  147  151 1 119.700 585.760
 148  147  151 1 124.000 585.760
 147  148  149 1 120.000 292.880
 147  148  150 1 120.000 292.880
 147  148  162 1 112.700000 488.273000
 149  148  150 1 117.000 292.880
 149  148  162 1 110.700000 313.800000
 150  148  162 1 110.700000 313.800000
 147  151  152 1 109.500 292.880
 147  151  153 1 109.500 292.880
 147  151  154 1 109.500 292.880
 152  151  153 1 107.800 276.144
 152  151  154 1 107.800 276.144
 153  151  154 1 107.800 276.144
 155  156  157 1 107.800 276.144
 155  156  158 1 107.800 276.144
 155  156  159 1 109.500 292.880
 157  156  158 1 107.800 276.144
 157  156  159 1 109.500 292.880
 158  156  159 1 109.500 292.880
 156  159  160 1 116.900 694.544
 159  160  161 1 123.400 694.544
 159  160  162 1 111.400 677.808
 161  160  162 1 125.300 669.440
 148  162  160 1 112.700000 488.273000
 148  162  163 1 112.700000 488.273000
 148  162  166 1 112.700000 488.273000
 160  162  163 1 120.700 711.280
 160  162  166 1 119.700 585.760
 163  162  166 1 124.000 585.760
 162  163  164 1 120.000 292.880
 162  163  165 1 120.000 292.880
 162  163  177 1 112.700000 488.273000
 164  163  165 1 117.000 292.880
 164  163  177 1 110.700000 313.800000
 165  163  177 1 110.700000 313.800000
 162  166  167 1 109.500 292.880
 162  166  168 1 109.500 292.880
 162  166  169 1 109.500 292.880
 167  166  168 1 107.800 276.144
 167  166  169 1 107.800 276.144
 168  166  169 1 107.800 276.144
 170  171  172 1 107.800 276.144
 170  171  173 1 107.800 276.144
 170  171  174 1 109.500 292.880
 172  171  173 1 107.800 276.144
 172  171  174 1 109.500 292.880
 173  171  174 1 109.500 292.880
 171  174  175 1 116.900 694.544
 174  175  176 1 123.400 694.544
 174  175  177 1 111.400 677.808
 176  175  177 1 125.300 669.440
 163  177  175 1 112.700000 488.273000
 163  177  178 1 112.700000 488.273000
 163  177  181 1 112.700000 488.273000
 175  177  178 1 120.700 711.280
 175  177  181 1 119.700 585.760
 178  177  181 1 124.000 585.760
 177  178  179 1 120.000 292.880
 177  178  180 1 120.000 292.880
 177  178  192 1 112.700000 488.273000
 179  178  180 1 117.000 292.880
 179  178  192 1 110.700000 313.800000
 180  178  192 1 110.700000 313.800000
 177  181  182 1 109.500 292.880
 177  181  183 1 109.500 292.880
 177  181  184 1 109.500 292.880
 182  181  183 1 107.800 276.144
 182  181  184 1 107.800 276.144
 183  181  184 1 107.800 276.144
 185  186  187 1 107.800 276.144
 185  186  188 1 107.800 276.144
 185  186  189 1 109.500 292.880
 187  186  188 1 107.800 276.144
 187  186  189 1 109.500 292.880
 188  186  189 1 109.500 292.880
 186  189  190 1 116.900 694.544
 189  190  191 1 123.400 694.544
 189  190  192 1 111.400 677.808
 191  190  192 1 125.300 669.440
 178  192  190 1 112.700000 488.273000
 178  192  193 1 112.700000 488.273000
 178  192  196 1 112.700000 488.273000
 190  192  193 1 120.700 711.280
 190  192  196 1 119.700 585.760
 193  192  196 1 124.000 585.760
 192  193  194 1 120.000 292.880
 192  193  195 1 120.000 292.880
 192  193  207 1 112.700000 488.273000
 194  193  195 1 117.000 292.880
 194  193  207 1 110.700000 313.800000
 195  193  207 1 110.700000 313.800000
 192  196  197 1 109.500 292.880
 192  196  198 1 109.500 292.880
 192  196  199 1 109.500 292.880
 197  196  198 1 107.800 276.144
 197  196  199 1 107.800 276.144
 198  196  199 1 107.800 276.144
 200  201  202 1 107.800 276.144
 200  201  203 1 107.800 276.144
 200  201  204 1 109.500 292.880
 202  201  203 1 107.800 276.144
 202  201  204 1 109.500 292.880
 203  201  204 1 109.500 292.880
 201  204  205 1 116.900 694.544
 204  205  206 1 123.400 694.544
 204  205  207 1 111.400 677.808
 206  205  207 1 125.300 669.440
 193  207  205 1 112.700000 488.273000
 193  207  208 1 112.700000 488.273000
 193  207  211 1 112.700000 488.273000
 205  207  208 1 120.700 711.280
 205  207  211 1 119.700 585.760
 208  207  211 1 124.000 585.760
 207  208  209 1 120.000 292.880
 207  208  210 1 120.000 292.880
 207  208  222 1 112.700000 488.273000
 209  208  210 1 117.000 292.880
 209  208  222 1 110.700000 313.800000
 210  208  222 1 110.700000 313.800000
 207  211  212 1 109.500 292.880
 207  211  213 1 109.500 292.880
 207  211  214 1 109.500 292.880
 212  211  213 1 107.800 276.144
 212  211  214 1 107.800 276.144
 213  211  214 1 107.800 276.144
 215  216  217 1 107.800 276.144
 215  216  218 1 107.800 276.144
 215  216  219 1 109.500 292.880
 217  216  218 1 107.800 276.144
 217  216  219 1 109.500 292.880
 218  216  219 1 109.500 292.880
 216  219  220 1 116.900 694.544
 219  220  221 1 123.400 694.544
 219  220  222 1 111.400 677.808
 221  220  222 1 125.300 669.440
 208  222  220 1 112.700000 488.273000
 208  222  223 1 112.700000 488.273000
 208  222  226 1 112.700000 488.273000
 220  222  223 1 120.700 711.280
 220  222  226 1 119.700 585.760
 223  222  226 1 124.000 585.760
 222  223  224 1 120.000 292.880
 222  223  225 1 120.000 292.880
 222  223  237 1 112.700000 488.273000
 224  223  225 1 117.000 292.880
 224  223  237 1 110.700000 313.800000
 225  223  237 1 110.700000 313.800000
 222  226  227 1 109.500 292.880
 222  226  228 1 109.500 292.880
 222  226  229 1 109.500 292.880
 227  226  228 1 107.800 276.144
 227  226  229 1 107.800 276.144
 228  226  229 1 107.800 276.144
 230  231  232 1 107.800 276.144
 230  231  233 1 107.800 276.144
 230  231  234 1 109.500 292.880
 232  231  233 1 107.800 276.144
 232  231  234 1 109.500 292.880
 233  231  234 1 109.500 292.880
 231  234  235 1 116.900 694.544
 234  235  236 1 123.400 694.544
 234  235  237 1 111.400 677.808
 236  235  237 1 125.300 669.440
 223  237  235 1 112.700000 488.273000
 223  237  238 1 112.700000 488.273000
 223  237  241 1 112.700000 488.273000
 235  237  238 1 120.700 711.280
 235  237  241 1 119.700 585.760
 238  237  241 1 124.000 585.760
 237  238  239 1 120.000 292.880
 237  238  240 1 120.000 292.880
 237  238  252 1 112.700000 488.273000
 239  238  240 1 117.000 292.880
 239  238  252 1 110.700000 313.800000
 240  238  252 1 110.700000 313.800000
 237  241  242 1 109.500 292.880
 237  241  243 1 109.500 292.880
 237  241  244 1 109.500 292.880
 242  241  243 1 107.800 276.144
 242  241  244 1 107.800 276.144
 243  241  244 1 107.800 276.144
 245  246  247 1 107.800 276.144
 245  246  248 1 107.800 276.144
 245  246  249 1 109.500 292.880
 247  246  248 1 107.800 276.144
 247  246  249 1 109.500 292.880
 248  246  249 1 109.500 292.880
 246  249  250 1 116.900 694.544
 249  250  251 1 123.400 694.544
 249  250  252 1 111.400 677.808
 251  250  252 1 125.300 669.440
 238  252  250 1 112.700000 488.273000
 238  252  253 1 112.700000 488.273000
 238  252  256 1 112.700000 488.273000
 250  252  253 1 120.700 711.280
 250  252  256 1 119.700 585.760
 253  252  256 1 124.000 585.760
 252  253  254 1 120.000 292.880
 252  253  255 1 120.000 292.880
 252  253  267 1 112.700000 488.273000
 254  253  255 1 117.000 292.880
 254  253  267 1 110.700000 313.800000
 255  253  267 1 110.700000 313.800000
 252  256  257 1 109.500 292.880
 252  256  258 1 109.500 292.880
 252  256  259 1 109.500 292.880
 257  256  258 1 107.800 276.144
 257  256  259 1 107.800 276.144
 258  256  259 1 107.800 276.144
 260  261  262 1 107.800 276.144
 260  261  263 1 107.800 276.144
 260  261  264 1 109.500 292.880
 262  261  263 1 107.800 276.144
 262  261  264 1 109.500 292.880
 263  261  264 1 109.500 292.880
 261  264  265 1 116.900 694.544
 264  265  266 1 123.400 694.544
 264  265  267 1 111.400 677.808
 266  265  267 1 125.300 669.440
 253  267  265 1 112.700000 488.273000
 253  267  268 1 112.700000 488.273000
 253  267  271 1 112.700000 488.273000
 265  267  268 1 120.700 711.280
 265  267  271 1 119.700 585.760
 268  267  271 1 124.000 585.760
 267  268  269 1 120.000 292.880
 267  268  270 1 120.000 292.880
 267  268  282 1 112.700000 488.273000
 269  268  270 1 117.000 292.880
 269  268  282 1 110.700000 313.800000
 270  268  282 1 110.700000 313.800000
 267  271  272 1 109.500 292.880
 267  271  273 1 109.500 292.880
 267  271  274 1 109.500 292.880
 272  271  273 1 107.800 276.144
 272  271  274 1 107.800 276.144
 273  271  274 1 107.800 276.144
 275  276  277 1 107.800 276.144
 275  276  278 1 107.800 276.144
 275  276  279 1 109.500 292.880
 277  276  278 1 107.800 276.144
 277  276  279 1 109.500 292.880
 278  276  279 1 109.500 292.880
 276  279  280 1 116.900 694.544
 279  280  281 1 123.400 694.544
 279  280  282 1 111.400 677.808
 281  280  282 1 125.300 669.440
 268  282  280 1 112.700000 488.273000
 268  282  283 1 112.700000 488.273000
 268  282  286 1 112.700000 488.273000
 280  282  283 1 120.700 711.280
 280  282  286 1 119.700 585.760
 283  282  286 1 124.000 585.760
 282  283  284 1 120.000 292.880
 282  283  285 1 120.000 292.880
 282  283  297 1 112.700000 488.273000
 284  283  285 1 117.000 292.880
 284  283  297 1 110.700000 313.800000
 285  283  297 1 110.700000 313.800000
 282  286  287 1 109.500 292.880
 282  286  288 1 109.500 292.880
 282  286  289 1 109.500 292.880
 287  286  288 1 107.800 276.144
 287  286  289 1 107.800 276.144
 288  286  289 1 107.800 276.144
 290  291  292 1 107.800 276.144
 290  291  293 1 107.800 276.144
 290  291  294 1 109.500 292.880
 292  291  293 1 107.800 276.144
 292  291  294 1 109.500 292.880
 293  291  294 1 109.500 292.880
 291  294  295 1 116.900 694.544
 294  295  296 1 123.400 694.544
 294  295  297 1 111.400 677.808
 296  295  297 1 125.300 669.440
 283  297  295 1 112.700000 488.273000
 283  297  298 1 112.700000 488.273000
 283  297  301 1 112.700000 488.273000
 295  297  298 1 120.700 711.280
 295  297  301 1 119.700 585.760
 298  297  301 1 124.000 585.760
 297  298  299 1 120.000 292.880
 297  298  300 1 120.000 292.880
 297  298  312 1 112.700000 488.273000
 299  298  300 1 117.000 292.880
 299  298  312 1 110.700000 313.800000
 300  298  312 1 110.700000 313.800000
 297  301  302 1 109.500 292.880
 297  301  303 1 109.500 292.880
 297  301  304 1 109.500 292.880
 302  301  303 1 107.800 276.144
 302  301  304 1 107.800 276.144
 303  301  304 1 107.800 276.144
 305  306  307 1 107.800 276.144
 305  306  308 1 107.800 276.144
 305  306  309 1 109.500 292.880
 307  306  308 1 107.800 276.144
 307  306  309 1 109.500 292.880
 308  306  309 1 109.500 292.880
 306  309  310 1 116.900 694.544
 309  310  311 1 123.400 694.544
 309  310  312 1 111.400 677.808
 311  310  312 1 125.300 669.440
 298  312  310 1 112.700000 488.273000
 298  312  313 1 112.700000 488.273000
 298  312  316 1 112.700000 488.273000
 310  312  313 1 120.700 711.280
 310  312  316 1 119.700 585.760
 313  312  316 1 124.000 585.760
 312  313  314 1 120.000 292.880
 312  313  315 1 120.000 292.880
 312  313  327 1 112.700000 488.273000
 314  313  315 1 117.000 292.880
 314  313  327 1 110.700000 313.800000
 315  313  327 1 110.700000 313.800000
 312  316  317 1 109.500 292.880
 312  316  318 1 109.500 292.880
 312  316  319 1 109.500 292.880
 317  316  318 1 107.800 276.144
 317  316  319 1 107.800 276.144
 318  316  319 1 107.800 276.144
 320  321  322 1 107.800 276.144
 320  321  323 1 107.800 276.144
 320  321  324 1 109.500 292.880
 322  321  323 1 107.800 276.144
 322  321  324 1 109.500 292.880
 323  321  324 1 109.500 292.880
 321  324  325 1 116.900 694.544
 324  325  326 1 123.400 694.544
 324  325  327 1 111.400 677.808
 326  325  327 1 125.300 669.440
 313  327  325 1 112.700000 488.273000
 313  327  328 1 112.700000 488.273000
 313  327  331 1 112.700000 488.273000
 325  327  328 1 120.700 711.280
 325  327  331 1 119.700 585.760
 328  327  331 1 124.000 585.760
 327  328  329 1 120.000 292.880
 327  328  330 1 120.000 292.880
 327  328  342 1 112.700000 488.273000
 329  328  330 1 117.000 292.880
 329  328  342 1 110.700000 313.800000
 330  328  342 1 110.700000 313.800000
 327  331  332 1 109.500 292.880
 327  331  333 1 109.500 292.880
 327  331  334 1 109.500 292.880
 332  331  333 1 107.800 276.144
 332  331  334 1 107.800 276.144
 333  331  334 1 107.800 276.144
 335  336  337 1 107.800 276.144
 335  336  338 1 107.800 276.144
 335  336  339 1 109.500 292.880
 337  336  338 1 107.800 276.144
 337  336  339 1 109.500 292.880
 338  336  339 1 109.500 292.880
 336  339  340 1 116.900 694.544
 339  340  341 1 123.400 694.544
 339  340  342 1 111.400 677.808
 341  340  342 1 125.300 669.440
 328  342  340 1 112.700000 488.273000
 328  342  343 1 112.700000 488.273000
 328  342  346 1 112.700000 488.273000
 340  342  343 1 120.700 711.280
 340  342  346 1 119.700 585.760
 343  342  346 1 124.000 585.760
 342  343  344 1 120.000 292.880
 342  343  345 1 120.000 292.880
 342  343  357 1 112.700000 488.273000
 344  343  345 1 117.000 292.880
 344  343  357 1 110.700000 313.800000
 345  343  357 1 110.700000 313.800000
 342  346  347 1 109.500 292.880
 342  346  348 1 109.500 292.880
 342  346  349 1 109.500 292.880
 347  346  348 1 107.800 276.144
 347  346  349 1 107.800 276.144
 348  346  349 1 107.800 276.144
 350  351  352 1 107.800 276.144
 350  351  353 1 107.800 276.144
 350  351  354 1 109.500 292.880
 352  351  353 1 107.800 276.144
 352  351  354 1 109.500 292.880
 353  351  354 1 109.500 292.880
 351  354  355 1 116.900 694.544
 354  355  356 1 123.400 694.544
 354  355  357 1 111.400 677.808
 356  355  357 1 125.300 669.440
 343  357  355 1 112.700000 488.273000
 343  357  358 1 112.700000 488.273000
 343  357  361 1 112.700000 488.273000
 355  357  358 1 120.700 711.280
 355  357  361 1 119.700 585.760
 358  357  361 1 124.000 585.760
 357  358  359 1 120.000 292.880
 357  358  360 1 120.000 292.880
 357  358  372 1 112.700000 488.273000
 359  358  360 1 117.000 292.880
 359  358  372 1 110.700000 313.800000
 360  358  372 1 110.700000 313.800000
 357  361  362 1 109.500 292.880
 357  361  363 1 109.500 292.880
 357  361  364 1 109.500 292.880
 362  361  363 1 107.800 276.144
 362  361  364 1 107.800 276.144
 363  361  364 1 107.800 276.144
 365  366  367 1 107.800 276.144
 365  366  368 1 107.800 276.144
 365  366  369 1 109.500 292.880
 367  366  368 1 107.800 276.144
 367  366  369 1 109.500 292.880
 368  366  369 1 109.500 292.880
 366  369  370 1 116.900 694.544
 369  370  371 1 123.400 694.544
 369  370  372 1 111.400 677.808
 371  370  372 1 125.300 669.440
 358  372  370 1 112.700000 488.273000
 358  372  373 1 112.700000 488.273000
 358  372  376 1 112.700000 488.273000
 370  372  373 1 120.700 711.280
 370  372  376 1 119.700 585.760
 373  372  376 1 124.000 585.760
 372  373  374 1 120.000 292.880
 372  373  375 1 120.000 292.880
 372  373  387 1 112.700000 488.273000
 374  373  375 1 117.000 292.880
 374  373  387 1 110.700000 313.800000
 375  373  387 1 110.700000 313.800000
 372  376  377 1 109.500 292.880
 372  376  378 1 109.500 292.880
 372  376  379 1 109.500 292.880
 377  376  378 1 107.800 276.144
 377  376  379 1 107.800 276.144
 378  376  379 1 107.800 276.144
 380  381  382 1 107.800 276.144
 380  381  383 1 107.800 276.144
 380  381  384 1 109.500 292.880
 382  381  383 1 107.800 276.144
 382  381  384 1 109.500 292.880
 383  381  384 1 109.500 292.880
 381  384  385 1 116.900 694.544
 384  385  386 1 123.400 694.544
 384  385  387 1 111.400 677.808
 386  385  387 1 125.300 669.440
 373  387  385 1 112.700000 488.273000
 373  387  388 1 112.700000 488.273000
 373  387  391 1 112.700000 488.273000
 385  387  388 1 120.700 711.280
 385  387  391 1 119.700 585.760
 388  387  391 1 124.000 585.760
 387  388  389 1 120.000 292.880
 387  388  390 1 120.000 292.880
 387  388  402 1 112.700000 488.273000
 389  388  390 1 117.000 292.880
 389  388  402 1 110.700000 313.800000
 390  388  402 1 110.700000 313.800000
 387  391  392 1 109.500 292.880
 387  391  393 1 109.500 292.880
 387  391  394 1 109.500 292.880
 392  391  393 1 107.800 276.144
 392  391  394 1 107.800 276.144
 393  391  394 1 107.800 276.144
 395  396  397 1 107.800 276.144
 395  396  398 1 107.800 276.144
 395  396  399 1 109.500 292.880
 397  396  398 1 107.800 276.144
 397  396  399 1 109.500 292.880
 398  396  399 1 109.500 292.880
 396  399  400 1 116.900 694.544
 399  400  401 1 123.400 694.544
 399  400  402 1 111.400 677.808
 401  400  402 1 125.300 669.440
 388  402  400 1 112.700000 488.273000
 388  402  403 1 112.700000 488.273000
 388  402  406 1 112.700000 488.273000
 400  402  403 1 120.700 711.280
 400  402  406 1 119.700 585.760
 403  402  406 1 124.000 585.760
 402  403  404 1 120.000 292.880
 402  403  405 1 120.000 292.880
 402  403  417 1 112.700000 488.273000
 404  403  405 1 117.000 292.880
 404  403  417 1 110.700000 313.800000
 405  403  417 1 110.700000 313.800000
 402  406  407 1 109.500 292.880
 402  406  408 1 109.500 292.880
 402  406  409 1 109.500 292.880
 407  406  408 1 107.800 276.144
 407  406  409 1 107.800 276.144
 408  406  409 1 107.800 276.144
 410  411  412 1 107.800 276.144
 410  411  413 1 107.800 276.144
 410  411  414 1 109.500 292.880
 412  411  413 1 107.800 276.144
 412  411  414 1 109.500 292.880
 413  411  414 1 109.500 292.880
 411  414  415 1 116.900 694.544
 414  415  416 1 123.400 694.544
 414  415  417 1 111.400 677.808
 416  415  417 1 125.300 669.440
 403  417  415 1 112.700000 488.273000
 403  417  418 1 112.700000 488.273000
 403  417  421 1 112.700000 488.273000
 415  417  418 1 120.700 711.280
 415  417  421 1 119.700 585.760
 418  417  421 1 124.000 585.760
 417  418  419 1 120.000 292.880
 417  418  420 1 120.000 292.880
 417  418  432 1 112.700000 488.273000
 419  418  420 1 117.000 292.880
 419  418  432 1 110.700000 313.800000
 420  418  432 1 110.700000 313.800000
 417  421  422 1 109.500 292.880
 417  421  423 1 109.500 292.880
 417  421  424 1 109.500 292.880
 422  421  423 1 107.800 276.144
 422  421  424 1 107.800 276.144
 423  421  424 1 107.800 276.144
 425  426  427 1 107.800 276.144
 425  426  428 1 107.800 276.144
 425  426  429 1 109.500 292.880
 427  426  428 1 107.800 276.144
 427  426  429 1 109.500 292.880
 428  426  429 1 109.500 292.880
 426  429  430 1 116.900 694.544
 429  430  431 1 123.400 694.544
 429  430  432 1 111.400 677.808
 431  430  432 1 125.300 669.440
 418  432  430 1 112.700000 488.273000
 418  432  433 1 112.700000 488.273000
 418  432  436 1 112.700000 488.273000
 430  432  433 1 120.700 711.280
 430  432  436 1 119.700 585.760
 433  432  436 1 124.000 585.760
 432  433  434 1 120.000 292.880
 432  433  435 1 120.000 292.880
 432  433  447 1 112.700000 488.273000
 434  433  435 1 117.000 292.880
 434  433  447 1 110.700000 313.800000
 435  433  447 1 110.700000 313.800000
 432  436  437 1 109.500 292.880
 432  436  438 1 109.500 292.880
 432  436  439 1 109.500 292.880
 437  436  438 1 107.800 276.144
 437  436  439 1 107.800 276.144
 438  436  439 1 107.800 276.144
 440  441  442 1 107.800 276.144
 440  441  443 1 107.800 276.144
 440  441  444 1 109.500 292.880
 442  441  443 1 107.800 276.144
 442  441  444 1 109.500 292.880
 443  441  444 1 109.500 292.880
 441  444  445 1 116.900 694.544
 444  445  446 1 123.400 694.544
 444  445  447 1 111.400 677.808
 446  445  447 1 125.300 669.440
 433  447  445 1 112.700000 488.273000
 433  447  448 1 112.700000 488.273000
 433  447  451 1 112.700000 488.273000
 445  447  448 1 120.700 711.280
 445  447  451 1 119.700 585.760
 448  447  451 1 124.000 585.760
 447  448  449 1 120.000 292.880
 447  448  450 1 120.000 292.880
 447  448  462 1 112.700000 488.273000
 449  448  450 1 117.000 292.880
 449  448  462 1 110.700000 313.800000
 450  448  462 1 110.700000 313.800000
 447  451  452 1 109.500 292.880
 447  451  453 1 109.500 292.880
 447  451  454 1 109.500 292.880
 452  451  453 1 107.800 276.144
 452  451  454 1 107.800 276.144
 453  451  454 1 107.800 276.144
 455  456  457 1 107.800 276.144
 455  456  458 1 107.800 276.144
 455  456  459 1 109.500 292.880
 457  456  458 1 107.800 276.144
 457  456  459 1 109.500 292.880
 458  456  459 1 109.500 292.880
 456  459  460 1 116.900 694.544
 459  460  461 1 123.400 694.544
 459  460  462 1 111.400 677.808
 461  460  462 1 125.300 669.440
 448  462  460 1 112.700000 488.273000
 448  462  463 1 112.700000 488.273000
 448  462  466 1 112.700000 488.273000
 460  462  463 1 120.700 711.280
 460  462  466 1 119.700 585.760
 463  462  466 1 124.000 585.760
 462  463  464 1 120.000 292.880
 462  463  465 1 120.000 292.880
 462  463  477 1 112.700000 488.273000
 464  463  465 1 117.000 292.880
 464  463  477 1 110.700000 313.800000
 465  463  477 1 110.700000 313.800000
 462  466  467 1 109.500 292.880
 462  466  468 1 109.500 292.880
 462  466  469 1 109.500 292.880
 467  466  468 1 107.800 276.144
 467  466  469 1 107.800 276.144
 468  466  469 1 107.800 276.144
 470  471  472 1 107.800 276.144
 470  471  473 1 107.800 276.144
 470  471  474 1 109.500 292.880
 472  471  473 1 107.800 276.144
 472  471  474 1 109.500 292.880
 473  471  474 1 109.500 292.880
 471  474  475 1 116.900 694.544
 474  475  476 1 123.400 694.544
 474  475  477 1 111.400 677.808
 476  475  477 1 125.300 669.440
 463  477  475 1 112.700000 488.273000
 463  477  478 1 112.700000 488.273000
 463  477  481 1 112.700000 488.273000
 475  477  478 1 120.700 711.280
 475  477  481 1 119.700 585.760
 478  477  481 1 124.000 585.760
 477  478  479 1 120.000 292.880
 477  478  480 1 120.000 292.880
 477  478  492 1 112.700000 488.273000
 479  478  480 1 117.000 292.880
 479  478  492 1 110.700000 313.800000
 480  478  492 1 110.700000 313.800000
 477  481  482 1 109.500 292.880
 477  481  483 1 109.500 292.880
 477  481  484 1 109.500 292.880
 482  481  483 1 107.800 276.144
 482  481  484 1 107.800 276.144
 483  481  484 1 107.800 276.144
 485  486  487 1 107.800 276.144
 485  486  488 1 107.800 276.144
 485  486  489 1 109.500 292.880
 487  486  488 1 107.800 276.144
 487  486  489 1 109.500 292.880
 488  486  489 1 109.500 292.880
 486  489  490 1 116.900 694.544
 489  490  491 1 123.400 694.544
 489  490  492 1 111.400 677.808
 491  490  492 1 125.300 669.440
 478  492  490 1 112.700000 488.273000
 478  492  493 1 112.700000 488.273000
 478  492  496 1 112.700000 488.273000
 490  492  493 1 120.700 711.280
 490  492  496 1 119.700 585.760
 493  492  496 1 124.000 585.760
 492  493  494 1 120.000 292.880
 492  493  495 1 120.000 292.880
 492  493  507 1 112.700000 488.273000
 494  493  495 1 117.000 292.880
 494  493  507 1 110.700000 313.800000
 495  493  507 1 110.700000 313.800000
 492  496  497 1 109.500 292.880
 492  496  498 1 109.500 292.880
 492  496  499 1 109.500 292.880
 497  496  498 1 107.800 276.144
 497  496  499 1 107.800 276.144
 498  496  499 1 107.800 276.144
 500  501  502 1 107.800 276.144
 500  501  503 1 107.800 276.144
 500  501  504 1 109.500 292.880
 502  501  503 1 107.800 276.144
 502  501  504 1 109.500 292.880
 503  501  504 1 109.500 292.880
 501  504  505 1 116.900 694.544
 504  505  506 1 123.400 694.544
 504  505  507 1 111.400 677.808
 506  505  507 1 125.300 669.440
 493  507  505 1 112.700000 488.273000
 493  507  508 1 112.700000 488.273000
 493  507  511 1 112.700000 488.273000
 505  507  508 1 120.700 711.280
 505  507  511 1 119.700 585.760
 508  507  511 1 124.000 585.760
 507  508  509 1 120.000 292.880
 507  508  510 1 120.000 292.880
 507  508  522 1 112.700000 488.273000
 509  508  510 1 117.000 292.880
 509  508  522 1 110.700000 313.800000
 510  508  522 1 110.700000 313.800000
 507  511  512 1 109.500 292.880
 507  511  513 1 109.500 292.880
 507  511  514 1 109.500 292.880
 512  511  513 1 107.800 276.144
 512  511  514 1 107.800 276.144
 513  511  514 1 107.800 276.144
 515  516  517 1 107.800 276.144
 515  516  518 1 107.800 276.144
 515  516  519 1 109.500 292.880
 517  516  518 1 107.800 276.144
 517  516  519 1 109.500 292.880
 518  516  519 1 109.500 292.880
 516  519  520 1 116.900 694.544
 519  520  521 1 123.400 694.544
 519  520  522 1 111.400 677.808
 521  520  522 1 125.300 669.440
 508  522  520 1 112.700000 488.273000
 508  522  523 1 112.700000 488.273000
 508  522  526 1 112.700000 488.273000
 520  522  523 1 120.700 711.280
 520  522  526 1 119.700 585.760
 523  522  526 1 124.000 585.760
 522  523  524 1 120.000 292.880
 522  523  525 1 120.000 292.880
 522  523  537 1 112.700000 488.273000
 524  523  525 1 117.000 292.880
 524  523  537 1 110.700000 313.800000
 525  523  537 1 110.700000 313.800000
 522  526  527 1 109.500 292.880
 522  526  528 1 109.500 292.880
 522  526  529 1 109.500 292.880
 527  526  528 1 107.800 276.144
 527  526  529 1 107.800 276.144
 528  526  529 1 107.800 276.144
 530  531  532 1 107.800 276.144
 530  531  533 1 107.800 276.144
 530  531  534 1 109.500 292.880
 532  531  533 1 107.800 276.144
 532  531  534 1 109.500 292.880
 533  531  534 1 109.500 292.880
 531  534  535 1 116.900 694.544
 534  535  536 1 123.400 694.544
 534  535  537 1 111.400 677.808
 536  535  537 1 125.300 669.440
 523  537  535 1 112.700000 488.273000
 523  537  538 1 112.700000 488.273000
 523  537  541 1 112.700000 488.273000
 535  537  538 1 120.700 711.280
 535  537  541 1 119.700 585.760
 538  537  541 1 124.000 585.760
 537  538  539 1 120.000 292.880
 537  538  540 1 120.000 292.880
 537  538  552 1 112.700000 488.273000
 539  538  540 1 117.000 292.880
 539  538  552 1 110.700000 313.800000
 540  538  552 1 110.700000 313.800000
 537  541  542 1 109.500 292.880
 537  541  543 1 109.500 292.880
 537  541  544 1 109.500 292.880
 542  541  543 1 107.800 276.144
 542  541  544 1 107.800 276.144
 543  541  544 1 107.800 276.144
 545  546  547 1 107.800 276.144
 545  546  548 1 107.800 276.144
 545  546  549 1 109.500 292.880
 547  546  548 1 107.800 276.144
 547  546  549 1 109.500 292.880
 548  546  549 1 109.500 292.880
 546  549  550 1 116.900 694.544
 549  550  551 1 123.400 694.544
 549  550  552 1 111.400 677.808
 551  550  552 1 125.300 669.440
 538  552  550 1 112.700000 488.273000
 538  552  553 1 112.700000 488.273000
 538  552  556 1 112.700000 488.273000
 550  552  553 1 120.700 711.280
 550  552  556 1 119.700 585.760
 553  552  556 1 124.000 585.760
 552  553  554 1 120.000 292.880
 552  553  555 1 120.000 292.880
 552  553  567 1 112.700000 488.273000
 554  553  555 1 117.000 292.880
 554  553  567 1 110.700000 313.800000
 555  553  567 1 110.700000 313.800000
 552  556  557 1 109.500 292.880
 552  556  558 1 109.500 292.880
 552  556  559 1 109.500 292.880
 557  556  558 1 107.800 276.144
 557  556  559 1 107.800 276.144
 558  556  559 1 107.800 276.144
 560  561  562 1 107.800 276.144
 560  561  563 1 107.800 276.144
 560  561  564 1 109.500 292.880
 562  561  563 1 107.800 276.144
 562  561  564 1 109.500 292.880
 563  561  564 1 109.500 292.880
 561  564  565 1 116.900 694.544
 564  565  566 1 123.400 694.544
 564  565  567 1 111.400 677.808
 566  565  567 1 125.300 669.440
 553  567  565 1 112.700000 488.273000
 553  567  568 1 112.700000 488.273000
 553  567  571 1 112.700000 488.273000
 565  567  568 1 120.700 711.280
 565  567  571 1 119.700 585.760
 568  567  571 1 124.000 585.760
 567  568  569 1 120.000 292.880
 567  568  570 1 120.000 292.880
 567  568  582 1 112.700000 488.273000
 569  568  570 1 117.000 292.880
 569  568  582 1 110.700000 313.800000
 570  568  582 1 110.700000 313.800000
 567  571  572 1 109.500 292.880
 567  571  573 1 109.500 292.880
 567  571  574 1 109.500 292.880
 572  571  573 1 107.800 276.144
 572  571  574 1 107.800 276.144
 573  571  574 1 107.800 276.144
 575  576  577 1 107.800 276.144
 575  576  578 1 107.800 276.144
 575  576  579 1 109.500 292.880
 577  576  578 1 107.800 276.144
 577  576  579 1 109.500 292.880
 578  576  579 1 109.500 292.880
 576  579  580 1 116.900 694.544
 579  580  581 1 123.400 694.544
 579  580  582 1 111.400 677.808
 581  580  582 1 125.300 669.440
 568  582  580 1 112.700000 488.273000
 568  582  583 1 112.700000 488.273000
 568  582  586 1 112.700000 488.273000
 580  582  583 1 120.700 711.280
 580  582  586 1 119.700 585.760
 583  582  586 1 124.000 585.760
 582  583  584 1 120.000 292.880
 582  583  585 1 120.000 292.880
 582  583  597 1 112.700000 488.273000
 584  583  585 1 117.000 292.880
 584  583  597 1 110.700000 313.800000
 585  583  597 1 110.700000 313.800000
 582  586  587 1 109.500 292.880
 582  586  588 1 109.500 292.880
 582  586  589 1 109.500 292.880
 587  586  588 1 107.800 276.144
 587  586  589 1 107.800 276.144
 588  586  589 1 107.800 276.144
 590  591  592 1 107.800 276.144
 590  591  593 1 107.800 276.144
 590  591  594 1 109.500 292.880
 592  591  593 1 107.800 276.144
 592  591  594 1 109.500 292.880
 593  591  594 1 109.500 292.880
 591  594  595 1 116.900 694.544
 594  595  596 1 123.400 694.544
 594  595  597 1 111.400 677.808
 596  595  597 1 125.300 669.440
 583  597  595 1 112.700000 488.273000
 583  597  598 1 112.700000 488.273000
 583  597  601 1 112.700000 488.273000
 595  597  598 1 120.700 711.280
 595  597  601 1 119.700 585.760
 598  597  601 1 124.000 585.760
 597  598  599 1 120.000 292.880
 597  598  600 1 120.000 292.880
 597  598  612 1 112.700000 488.273000
 599  598  600 1 117.000 292.880
 599  598  612 1 110.700000 313.800000
 600  598  612 1 110.700000 313.800000
 597  601  602 1 109.500 292.880
 597  601  603 1 109.500 292.880
 597  601  604 1 109.500 292.880
 602  601  603 1 107.800 276.144
 602  601  604 1 107.800 276.144
 603  601  604 1 107.800 276.144
 605  606  607 1 107.800 276.144
 605  606  608 1 107.800 276.144
 605  606  609 1 109.500 292.880
 607  606  608 1 107.800 276.144
 607  606  609 1 109.500 292.880
 608  606  609 1 109.500 292.880
 606  609  610 1 116.900 694.544
 609  610  611 1 123.400 694.544
 609  610  612 1 111.400 677.808
 611  610  612 1 125.300 669.440
 598  612  610 1 112.700000 488.273000
 598  612  613 1 112.700000 488.273000
 598  612  616 1 112.700000 488.273000
 610  612  613 1 120.700 711.280
 610  612  616 1 119.700 585.760
 613  612  616 1 124.000 585.760
 612  613  614 1 120.000 292.880
 612  613  615 1 120.000 292.880
 612  613  627 1 112.700000 488.273000
 614  613  615 1 117.000 292.880
 614  613  627 1 110.700000 313.800000
 615  613  627 1 110.700000 313.800000
 612  616  617 1 109.500 292.880
 612  616  618 1 109.500 292.880
 612  616  619 1 109.500 292.880
 617  616  618 1 107.800 276.144
 617  616  619 1 107.800 276.144
 618  616  619 1 107.800 276.144
 620  621  622 1 107.800 276.144
 620  621  623 1 107.800 276.144
 620  621  624 1 109.500 292.880
 622  621  623 1 107.800 276.144
 622  621  624 1 109.500 292.880
 623  621  624 1 109.500 292.880
 621  624  625 1 116.900 694.544
 624  625  626 1 123.400 694.544
 624  625  627 1 111.400 677.808
 626  625  627 1 125.300 669.440
 613  627  625 1 112.700000 488.273000
 613  627  628 1 112.700000 488.273000
 613  627  631 1 112.700000 488.273000
 625  627  628 1 120.700 711.280
 625  627  631 1 119.700 585.760
 628  627  631 1 124.000 585.760
 627  628  629 1 120.000 292.880
 627  628  630 1 120.000 292.880
 627  628  642 1 112.700000 488.273000
 629  628  630 1 117.000 292.880
 629  628  642 1 110.700000 313.800000
 630  628  642 1 110.700000 313.800000
 627  631  632 1 109.500 292.880
 627  631  633 1 109.500 292.880
 627  631  634 1 109.500 292.880
 632  631  633 1 107.800 276.144
 632  631  634 1 107.800 276.144
 633  631  634 1 107.800 276.144
 635  636  637 1 107.800 276.144
 635  636  638 1 107.800 276.144
 635  636  639 1 109.500 292.880
 637  636  638 1 107.800 276.144
 637  636  639 1 109.500 292.880
 638  636  639 1 109.500 292.880
 636  639  640 1 116.900 694.544
 639  640  641 1 123.400 694.544
 639  640  642 1 111.400 677.808
 641  640  642 1 125.300 669.440
 628  642  640 1 112.700000 488.273000
 628  642  643 1 112.700000 488.273000
 628  642  646 1 112.700000 488.273000
 640  642  643 1 120.700 711.280
 640  642  646 1 119.700 585.760
 643  642  646 1 124.000 585.760
 642  643  644 1 120.000 292.880
 642  643  645 1 120.000 292.880
 642  643  657 1 112.700000 488.273000
 644  643  645 1 117.000 292.880
 644  643  657 1 110.700000 313.800000
 645  643  657 1 110.700000 313.800000
 642  646  647 1 109.500 292.880
 642  646  648 1 109.500 292.880
 642  646  649 1 109.500 292.880
 647  646  648 1 107.800 276.144
 647  646  649 1 107.800 276.144
 648  646  649 1 107.800 276.144
 650  651  652 1 107.800 276.144
 650  651  653 1 107.800 276.144
 650  651  654 1 109.500 292.880
 652  651  653 1 107.800 276.144
 652  651  654 1 109.500 292.880
 653  651  654 1 109.500 292.880
 651  654  655 1 116.900 694.544
 654  655  656 1 123.400 694.544
 654  655  657 1 111.400 677.808
 656  655  657 1 125.300 669.440
 643  657  655 1 112.700000 488.273000
 643  657  658 1 112.700000 488.273000
 643  657  661 1 112.700000 488.273000
 655  657  658 1 120.700 711.280
 655  657  661 1 119.700 585.760
 658  657  661 1 124.000 585.760
 657  658  659 1 120.000 292.880
 657  658  660 1 120.000 292.880
 657  658  672 1 112.700000 488.273000
 659  658  660 1 117.000 292.880
 659  658  672 1 110.700000 313.800000
 660  658  672 1 110.700000 313.800000
 657  661  662 1 109.500 292.880
 657  661  663 1 109.500 292.880
 657  661  664 1 109.500 292.880
 662  661  663 1 107.800 276.144
 662  661  664 1 107.800 276.144
 663  661  664 1 107.800 276.144
 665  666  667 1 107.800 276.144
 665  666  668 1 107.800 276.144
 665  666  669 1 109.500 292.880
 667  666  668 1 107.800 276.144
 667  666  669 1 109.500 292.880
 668  666  669 1 109.500 292.880
 666  669  670 1 116.900 694.544
 669  670  671 1 123.400 694.544
 669  670  672 1 111.400 677.808
 671  670  672 1 125.300 669.440
 658  672  670 1 112.700000 488.273000
 658  672  673 1 112.700000 488.273000
 658  672  676 1 112.700000 488.273000
 670  672  673 1 120.700 711.280
 670  672  676 1 119.700 585.760
 673  672  676 1 124.000 585.760
 672  673  674 1 120.000 292.880
 672  673  675 1 120.000 292.880
 672  673  687 1 112.700000 488.273000
 674  673  675 1 117.000 292.880
 674  673  687 1 110.700000 313.800000
 675  673  687 1 110.700000 313.800000
 672  676  677 1 109.500 292.880
 672  676  678 1 109.500 292.880
 672  676  679 1 109.500 292.880
 677  676  678 1 107.800 276.144
 677  676  679 1 107.800 276.144
 678  676  679 1 107.800 276.144
 680  681  682 1 107.800 276.144
 680  681  683 1 107.800 276.144
 680  681  684 1 109.500 292.880
 682  681  683 1 107.800 276.144
 682  681  684 1 109.500 292.880
 683  681  684 1 109.500 292.880
 681  684  685 1 116.900 694.544
 684  685  686 1 123.400 694.544
 684  685  687 1 111.400 677.808
 686  685  687 1 125.300 669.440
 673  687  685 1 112.700000 488.273000
 673  687  688 1 112.700000 488.273000
 673  687  691 1 112.700000 488.273000
 685  687  688 1 120.700 711.280
 685  687  691 1 119.700 585.760
 688  687  691 1 124.000 585.760
 687  688  689 1 120.000 292.880
 687  688  690 1 120.000 292.880
 687  688  702 1 112.700000 488.273000
 689  688  690 1 117.000 292.880
 689  688  702 1 110.700000 313.800000
 690  688  702 1 110.700000 313.800000
 687  691  692 1 109.500 292.880
 687  691  693 1 109.500 292.880
 687  691  694 1 109.500 292.880
 692  691  693 1 107.800 276.144
 692  691  694 1 107.800 276.144
 693  691  694 1 107.800 276.144
 695  696  697 1 107.800 276.144
 695  696  698 1 107.800 276.144
 695  696  699 1 109.500 292.880
 697  696  698 1 107.800 276.144
 697  696  699 1 109.500 292.880
 698  696  699 1 109.500 292.880
 696  699  700 1 116.900 694.544
 699  700  701 1 123.400 694.544
 699  700  702 1 111.400 677.808
 701  700  702 1 125.300 669.440
 688  702  700 1 112.700000 488.273000
 688  702  703 1 112.700000 488.273000
 688  702  706 1 112.700000 488.273000
 700  702  703 1 120.700 711.280
 700  702  706 1 119.700 585.760
 703  702  706 1 124.000 585.760
 702  703  704 1 120.000 292.880
 702  703  705 1 120.000 292.880
 702  703  717 1 112.700000 488.273000
 704  703  705 1 117.000 292.880
 704  703  717 1 110.700000 313.800000
 705  703  717 1 110.700000 313.800000
 702  706  707 1 109.500 292.880
 702  706  708 1 109.500 292.880
 702  706  709 1 109.500 292.880
 707  706  708 1 107.800 276.144
 707  706  709 1 107.800 276.144
 708  706  709 1 107.800 276.144
 710  711  712 1 107.800 276.144
 710  711  713 1 107.800 276.144
 710  711  714 1 109.500 292.880
 712  711  713 1 107.800 276.144
 712  711  714 1 109.500 292.880
 713  711  714 1 109.500 292.880
 711  714  715 1 116.900 694.544
 714  715  716 1 123.400 694.544
 714  715  717 1 111.400 677.808
 716  715  717 1 125.300 669.440
 703  717  715 1 112.700000 488.273000
 703  717  718 1 112.700000 488.273000
 703  717  721 1 112.700000 488.273000
 715  717  718 1 120.700 711.280
 715  717  721 1 119.700 585.760
 718  717  721 1 124.000 585.760
 717  718  719 1 120.000 292.880
 717  718  720 1 120.000 292.880
 717  718  732 1 112.700000 488.273000
 719  718  720 1 117.000 292.880
 719  718  732 1 110.700000 313.800000
 720  718  732 1 110.700000 313.800000
 717  721  722 1 109.500 292.880
 717  721  723 1 109.500 292.880
 717  721  724 1 109.500 292.880
 722  721  723 1 107.800 276.144
 722  721  724 1 107.800 276.144
 723  721  724 1 107.800 276.144
 725  726  727 1 107.800 276.144
 725  726  728 1 107.800 276.144
 725  726  729 1 109.500 292.880
 727  726  728 1 107.800 276.144
 727  726  729 1 109.500 292.880
 728  726  729 1 109.500 292.880
 726  729  730 1 116.900 694.544
 729  730  731 1 123.400 694.544
 729  730  732 1 111.400 677.808
 731  730  732 1 125.300 669.440
 718  732  730 1 112.700000 488.273000
 718  732  733 1 112.700000 488.273000
 718  732  736 1 112.700000 488.273000
 730  732  733 1 120.700 711.280
 730  732  736 1 119.700 585.760
 733  732  736 1 124.000 585.760
 732  733  734 1 120.000 292.880
 732  733  735 1 120.000 292.880
 732  733  747 1 112.700000 488.273000
 734  733  735 1 117.000 292.880
 734  733  747 1 110.700000 313.800000
 735  733  747 1 110.700000 313.800000
 732  736  737 1 109.500 292.880
 732  736  738 1 109.500 292.880
 732  736  739 1 109.500 292.880
 737  736  738 1 107.800 276.144
 737  736  739 1 107.800 276.144
 738  736  739 1 107.800 276.144
 740  741  742 1 107.800 276.144
 740  741  743 1 107.800 276.144
 740  741  744 1 109.500 292.880
 742  741  743 1 107.800 276.144
 742  741  744 1 109.500 292.880
 743  741  744 1 109.500 292.880
 741  744  745 1 116.900 694.544
 744  745  746 1 123.400 694.544
 744  745  747 1 111.400 677.808
 746  745  747 1 125.300 669.440
 733  747  745 1 112.700000 488.273000
 733  747  748 1 112.700000 488.273000
 733  747  751 1 112.700000 488.273000
 745  747  748 1 120.700 711.280
 745  747  751 1 119.700 585.760
 748  747  751 1 124.000 585.760
 747  748  749 1 120.000 292.880
 747  748  750 1 120.000 292.880
 747  748  762 1 112.700000 488.273000
 749  748  750 1 117.000 292.880
 749  748  762 1 110.700000 313.800000
 750  748  762 1 110.700000 313.800000
 747  751  752 1 109.500 292.880
 747  751  753 1 109.500 292.880
 747  751  754 1 109.500 292.880
 752  751  753 1 107.800 276.144
 752  751  754 1 107.800 276.144
 753  751  754 1 107.800 276.144
 755  756  757 1 107.800 276.144
 755  756  758 1 107.800 276.144
 755  756  759 1 109.500 292.880
 757  756  758 1 107.800 276.144
 757  756  759 1 109.500 292.880
 758  756  759 1 109.500 292.880
 756  759  760 1 116.900 694.544
 759  760  761 1 123.400 694.544
 759  760  762 1 111.400 677.808
 761  760  762 1 125.300 669.440
 748  762  760 1 112.700000 488.273000
 748  762  763 1 112.700000 488.273000
 748  762  766 1 112.700000 488.273000
 760  762  763 1 120.700 711.280
 760  762  766 1 119.700 585.760
 763  762  766 1 124.000 585.760
 762  763  764 1 120.000 292.880
 762  763  765 1 120.000 292.880
 762  763  777 1 112.700000 488.273000
 764  763  765 1 117.000 292.880
 764  763  777 1 110.700000 313.800000
 765  763  777 1 110.700000 313.800000
 762  766  767 1 109.500 292.880
 762  766  768 1 109.500 292.880
 762  766  769 1 109.500 292.880
 767  766  768 1 107.800 276.144
 767  766  769 1 107.800 276.144
 768  766  769 1 107.800 276.144
 770  771  772 1 107.800 276.144
 770  771  773 1 107.800 276.144
 770  771  774 1 109.500 292.880
 772  771  773 1 107.800 276.144
 772  771  774 1 109.500 292.880
 773  771  774 1 109.500 292.880
 771  774  775 1 116.900 694.544
 774  775  776 1 123.400 694.544
 774  775  777 1 111.400 677.808
 776  775  777 1 125.300 669.440
 763  777  775 1 112.700000 488.273000
 763  777  778 1 112.700000 488.273000
 763  777  781 1 112.700000 488.273000
 775  777  778 1 120.700 711.280
 775  777  781 1 119.700 585.760
 778  777  781 1 124.000 585.760
 777  778  779 1 120.000 292.880
 777  778  780 1 120.000 292.880
 777  778  792 1 112.700000 488.273000
 779  778  780 1 117.000 292.880
 779  778  792 1 110.700000 313.800000
 780  778  792 1 110.700000 313.800000
 777  781  782 1 109.500 292.880
 777  781  783 1 109.500 292.880
 777  781  784 1 109.500 292.880
 782  781  783 1 107.800 276.144
 782  781  784 1 107.800 276.144
 783  781  784 1 107.800 276.144
 785  786  787 1 107.800 276.144
 785  786  788 1 107.800 276.144
 785  786  789 1 109.500 292.880
 787  786  788 1 107.800 276.144
 787  786  789 1 109.500 292.880
 788  786  789 1 109.500 292.880
 786  789  790 1 116.900 694.544
 789  790  791 1 123.400 694.544
 789  790  792 1 111.400 677.808
 791  790  792 1 125.300 669.440
 778  792  790 1 112.700000 488.273000
 778  792  793 1 112.700000 488.273000
 778  792  796 1 112.700000 488.273000
 790  792  793 1 120.700 711.280
 790  792  796 1 119.700 585.760
 793  792  796 1 124.000 585.760
 792  793  794 1 120.000 292.880
 792  793  795 1 120.000 292.880
 792  793  807 1 112.700000 488.273000
 794  793  795 1 117.000 292.880
 794  793  807 1 110.700000 313.800000
 795  793  807 1 110.700000 313.800000
 792  796  797 1 109.500 292.880
 792  796  798 1 109.500 292.880
 792  796  799 1 109.500 292.880
 797  796  798 1 107.800 276.144
 797  796  799 1 107.800 276.144
 798  796  799 1 107.800 276.144
 800  801  802 1 107.800 276.144
 800  801  803 1 107.800 276.144
 800  801  804 1 109.500 292.880
 802  801  803 1 107.800 276.144
 802  801  804 1 109.500 292.880
 803  801  804 1 109.500 292.880
 801  804  805 1 116.900 694.544
 804  805  806 1 123.400 694.544
 804  805  807 1 111.400 677.808
 806  805  807 1 125.300 669.440
 793  807  805 1 112.700000 488.273000
 793  807  808 1 112.700000 488.273000
 793  807  811 1 112.700000 488.273000
 805  807  808 1 120.700 711.280
 805  807  811 1 119.700 585.760
 808  807  811 1 124.000 585.760
 807  808  809 1 120.000 292.880
 807  808  810 1 120.000 292.880
 807  808  822 1 112.700000 488.273000
 809  808  810 1 117.000 292.880
 809  808  822 1 110.700000 313.800000
 810  808  822 1 110.700000 313.800000
 807  811  812 1 109.500 292.880
 807  811  813 1 109.500 292.880
 807  811  814 1 109.500 292.880
 812  811  813 1 107.800 276.144
 812  811  814 1 107.800 276.144
 813  811  814 1 107.800 276.144
 815  816  817 1 107.800 276.144
 815  816  818 1 107.800 276.144
 815  816  819 1 109.500 292.880
 817  816  818 1 107.800 276.144
 817  816  819 1 109.500 292.880
 818  816  819 1 109.500 292.880
 816  819  820 1 116.900 694.544
 819  820  821 1 123.400 694.544
 819  820  822 1 111.400 677.808
 821  820  822 1 125.300 669.440
 808  822  820 1 112.700000 488.273000
 808  822  823 1 112.700000 488.273000
 808  822  826 1 112.700000 488.273000
 820  822  823 1 120.700 711.280
 820  822  826 1 119.700 585.760
 823  822  826 1 124.000 585.760
 822  823  824 1 120.000 292.880
 822  823  825 1 120.000 292.880
 822  823  837 1 112.700000 488.273000
 824  823  825 1 117.000 292.880
 824  823  837 1 110.700000 313.800000
 825  823  837 1 110.700000 313.800000
 822  826  827 1 109.500 292.880
 822  826  828 1 109.500 292.880
 822  826  829 1 109.500 292.880
 827  826  828 1 107.800 276.144
 827  826  829 1 107.800 276.144
 828  826  829 1 107.800 276.144
 830  831  832 1 107.800 276.144
 830  831  833 1 107.800 276.144
 830  831  834 1 109.500 292.880
 832  831  833 1 107.800 276.144
 832  831  834 1 109.500 292.880
 833  831  834 1 109.500 292.880
 831  834  835 1 116.900 694.544
 834  835  836 1 123.400 694.544
 834  835  837 1 111.400 677.808
 836  835  837 1 125.300 669.440
 823  837  835 1 112.700000 488.273000
 823  837  838 1 112.700000 488.273000
 823  837  841 1 112.700000 488.273000
 835  837  838 1 120.700 711.280
 835  837  841 1 119.700 585.760
 838  837  841 1 124.000 585.760
 837  838  839 1 120.000 292.880
 837  838  840 1 120.000 292.880
 837  838  852 1 112.700000 488.273000
 839  838  840 1 117.000 292.880
 839  838  852 1 110.700000 313.800000
 840  838  852 1 110.700000 313.800000
 837  841  842 1 109.500 292.880
 837  841  843 1 109.500 292.880
 837  841  844 1 109.500 292.880
 842  841  843 1 107.800 276.144
 842  841  844 1 107.800 276.144
 843  841  844 1 107.800 276.144
 845  846  847 1 107.800 276.144
 845  846  848 1 107.800 276.144
 845  846  849 1 109.500 292.880
 847  846  848 1 107.800 276.144
 847  846  849 1 109.500 292.880
 848  846  849 1 109.500 292.880
 846  849  850 1 116.900 694.544
 849  850  851 1 123.400 694.544
 849  850  852 1 111.400 677.808
 851  850  852 1 125.300 669.440
 838  852  850 1 112.700000 488.273000
 838  852  853 1 112.700000 488.273000
 838  852  856 1 112.700000 488.273000
 850  852  853 1 120.700 711.280
 850  852  856 1 119.700 585.760
 853  852  856 1 124.000 585.760
 852  853  854 1 120.000 292.880
 852  853  855 1 120.000 292.880
 852  853  867 1 112.700000 488.273000
 854  853  855 1 117.000 292.880
 854  853  867 1 110.700000 313.800000
 855  853  867 1 110.700000 313.800000
 852  856  857 1 109.500 292.880
 852  856  858 1 109.500 292.880
 852  856  859 1 109.500 292.880
 857  856  858 1 107.800 276.144
 857  856  859 1 107.800 276.144
 858  856  859 1 107.800 276.144
 860  861  862 1 107.800 276.144
 860  861  863 1 107.800 276.144
 860  861  864 1 109.500 292.880
 862  861  863 1 107.800 276.144
 862  861  864 1 109.500 292.880
 863  861  864 1 109.500 292.880
 861  864  865 1 116.900 694.544
 864  865  866 1 123.400 694.544
 864  865  867 1 111.400 677.808
 866  865  867 1 125.300 669.440
 853  867  865 1 112.700000 488.273000
 853  867  868 1 112.700000 488.273000
 853  867  871 1 112.700000 488.273000
 865  867  868 1 120.700 711.280
 865  867  871 1 119.700 585.760
 868  867  871 1 124.000 585.760
 867  868  869 1 120.000 292.880
 867  868  870 1 120.000 292.880
 867  868  879 1 112.700000 488.273000
 869  868  870 1 117.000 292.880
 869  868  879 1 110.700000 313.800000
 870  868  879 1 110.700000 313.800000
 867  871  872 1 109.500 292.880
 867  871  873 1 109.500 292.880
 867  871  874 1 109.500 292.880
 872  871  873 1 107.800 276.144
 872  871  874 1 107.800 276.144
 873  871  874 1 107.800 276.144
 875  876  877 1 107.800 276.144
 875  876  878 1 107.800 276.144
 875  876  879 1 109.500 292.880
 877  876  878 1 107.800 276.144
 877  876  879 1 109.500 292.880
 878  876  879 1 109.500 292.880
 868  879  876 1 112.700000 488.273000
 868  879  880 1 112.700000 488.273000
 868  879  883 1 112.700000 488.273000
 876  879  880 1 124.000 585.760
 876  879  883 1 119.700 585.760
 880  879  883 1 120.700 711.280
 879  880  881 1 120.000 292.880
 879  880  882 1 120.000 292.880
 879  880  915 1 112.700000 488.273000
 881  880  882 1 117.000 292.880
 881  880  915 1 110.700000 313.800000
 882  880  915 1 110.700000 313.800000
 879  883  884 1 125.300 669.440
 879  883  885 1 111.400 677.808
 884  883  885 1 123.400 694.544
 883  885  886 1 116.900 694.544
 885  886  887 1 109.500 292.880
 885  886  888 1 109.500 292.880
 885  886  889 1 109.500 418.400
 887  886  888 1 107.800 276.144
 887  886  889 1 110.700 313.800
 888  886  889 1 110.700 313.800
 886  889  890 1 110.700 313.800
 886  889  891 1 112.700 488.273
 886  889  898 1 112.700 488.273
 890  889  891 1 110.700 313.800
 890  889  898 1 110.700 313.800
 891  889  898 1 112.700 488.273
 889  891  892 1 110.700 313.800
 889  891  893 1 110.700 313.800
 889  891  894 1 112.700 488.273
 892  891  893 1 107.800 276.144
 892  891  894 1 110.700 313.800
 893  891  894 1 110.700 313.800
 891  894  895 1 110.700 313.800
 891  894  896 1 110.700 313.800
 891  894  897 1 110.700 313.800
 895  894  896 1 107.800 276.144
 895  894  897 1 107.800 276.144
 896  894  897 1 107.800 276.144
 889  898  899 1 110.700 313.800
 889  898  900 1 110.700 313.800
 889  898  901 1 112.700 488.273
 899  898  900 1 107.800 276.144
 899  898  901 1 110.700 313.800
 900  898  901 1 110.700 313.800
 898  901  902 1 110.700 313.800
 898  901  903 1 110.700 313.800
 898  901  904 1 112.700 488.273
 902  901  903 1 107.800 276.144
 902  901  904 1 110.700 313.800
 903  901  904 1 110.700 313.800
 901  904  905 1 110.700 313.800
 901  904  906 1 110.700 313.800
 901  904  907 1 112.700 488.273
 905  904  906 1 107.800 276.144
 905  904  907 1 110.700 313.800
 906  904  907 1 110.700 313.800
 904  907  908 1 110.700 313.800
 904  907  909 1 110.700 313.800
 904  907  910 1 110.700 313.800
 908  907  909 1 107.800 276.144
 908  907  910 1 107.800 276.144
 909  907  910 1 107.800 276.144
 911  912  913 1 107.800 276.144
 911  912  914 1 107.800 276.144
 911  912  915 1 109.500 292.880
 913  912  914 1 107.800 276.144
 913  912  915 1 109.500 292.880
 914  912  915 1 109.500 292.880
 880  915  912 1 112.700000 488.273000
 880  915  916 1 112.700000 488.273000
 880  915  919 1 112.700000 488.273000
 912  915  916 1 124.000 585.760
 912  915  919 1 119.700 585.760
 916  915  919 1 120.700 711.280
 915  916  917 1 120.000 292.880
 915  916  918 1 120.000 292.880
 915  916  981 1 112.700000 488.273000
 917  916  918 1 117.000 292.880
 917  916  981 1 110.700000 313.800000
 918  916  981 1 110.700000 313.800000
 915  919  920 1 125.300 669.440
 915  919  921 1 111.400 677.808
 920  919  921 1 123.400 694.544
 919  921  922 1 116.900 694.544
 921  922  923 1 109.500 292.880
 921  922  924 1 109.500 292.880
 921  922  925 1 109.500 418.400
 923  922  924 1 107.800 276.144
 923  922  925 1 110.700 313.800
 924  922  925 1 110.700 313.800
 922  925  926 1 110.700 313.800
 922  925  927 1 110.700 313.800
 922  925  928 1 112.700 488.273
 926  925  927 1 107.800 276.144
 926  925  928 1 110.700 313.800
 927  925  928 1 110.700 313.800
 925  928  929 1 110.700 313.800
 925  928  930 1 110.700 313.800
 925  928  931 1 112.700 488.273
 929  928  930 1 107.800 276.144
 929  928  931 1 110.700 313.800
 930  928  931 1 110.700 313.800
 928  931  932 1 110.700 313.800
 928  931  933 1 110.700 313.800
 928  931  934 1 112.700 488.273
 932  931  933 1 107.800 276.144
 932  931  934 1 110.700 313.800
 933  931  934 1 110.700 313.800
 931  934  935 1 110.700 313.800
 931  934  936 1 110.700 313.800
 931  934  937 1 112.700 488.273
 935  934  936 1 107.800 276.144
 935  934  937 1 110.700 313.800
 936  934  937 1 110.700 313.800
 934  937  938 1 110.700 313.800
 934  937  939 1 110.700 313.800
 934  937  940 1 112.700 488.273
 938  937  939 1 107.800 276.144
 938  937  940 1 110.700 313.800
 939  937  940 1 110.700 313.800
 937  940  941 1 110.700 313.800
 937  940  942 1 110.700 313.800
 937  940  943 1 112.700 488.273
 941  940  942 1 107.800 276.144
 941  940  943 1 110.700 313.800
 942  940  943 1 110.700 313.800
 940  943  944 1 110.700 313.800
 940  943  945 1 110.700 313.800
 940  943  946 1 112.700 488.273
 944  943  945 1 107.800 276.144
 944  943  946 1 110.700 313.800
 945  943  946 1 110.700 313.800
 943  946  947 1 110.700 313.800
 943  946  948 1 110.700 313.800
 943  946  949 1 112.700 488.273
 947  946  948 1 107.800 276.144
 947  946  949 1 110.700 313.800
 948  946  949 1 110.700 313.800
 946  949  950 1 110.700 313.800
 946  949  951 1 110.700 313.800
 946  949  952 1 112.700 488.273
 950  949  951 1 107.800 276.144
 950  949  952 1 110.700 313.800
 951  949  952 1 110.700 313.800
 949  952  953 1 110.700 313.800
 949  952  954 1 110.700 313.800
 949  952  955 1 112.700 488.273
 953  952  954 1 107.800 276.144
 953  952  955 1 110.700 313.800
 954  952  955 1 110.700 313.800
 952  955  956 1 110.700 313.800
 952  955  957 1 110.700 313.800
 952  955  958 1 112.700 488.273
 956  955  957 1 107.800 276.144
 956  955  958 1 110.700 313.800
 957  955  958 1 110.700 313.800
 955  958  959 1 110.700 313.800
 955  958  960 1 110.700 313.800
 955  958  961 1 112.700 488.273
 959  958  960 1 107.800 276.144
 959  958  961 1 110.700 313.800
 960  958  961 1 110.700 313.800
 958  961  962 1 110.700 313.800
 958  961  963 1 110.700 313.800
 958  961  964 1 112.700 488.273
 962  961  963 1 107.800 276.144
 962  961  964 1 110.700 313.800
 963  961  964 1 110.700 313.800
 961  964  965 1 110.700 313.800
 961  964  966 1 110.700 313.800
 961  964  967 1 112.700 488.273
 965  964  966 1 107.800 276.144
 965  964  967 1 110.700 313.800
 966  964  967 1 110.700 313.800
 964  967  968 1 110.700 313.800
 964  967  969 1 110.700 313.800
 964  967  970 1 112.700 488.273
 968  967  969 1 107.800 276.144
 968  967  970 1 110.700 313.800
 969  967  970 1 110.700 313.800
 967  970  971 1 110.700 313.800
 967  970  972 1 110.700 313.800
 967  970  973 1 112.700 488.273
 971  970  972 1 107.800 276.144
 971  970  973 1 110.700 313.800
 972  970  973 1 110.700 313.800
 970  973  974 1 110.700 313.800
 970  973  975 1 110.700 313.800
 970  973  976 1 110.700 313.800
 974  973  975 1 107.800 276.144
 974  973  976 1 107.800 276.144
 975  973  976 1 107.800 276.144
 977  978  979 1 107.800 276.144
 977  978  980 1 107.800 276.144
 977  978  981 1 109.500 292.880
 979  978  980 1 107.800 276.144
 979  978  981 1 109.500 292.880
 980  978  981 1 109.500 292.880
 916  981  978 1 112.700000 488.273000
 916  981  982 1 112.700000 488.273000
 916  981  985 1 112.700000 488.273000
 978  981  982 1 124.000 585.760
 978  981  985 1 119.700 585.760
 982  981  985 1 120.700 711.280
 981  982  983 1 120.000 292.880
 981  982  984 1 120.000 292.880
 981  982 1047 1 112.700000 488.273000
 983  982  984 1 117.000 292.880
 983  982 1047 1 110.700000 313.800000
 984  982 1047 1 110.700000 313.800000
 981  985  986 1 125.300 669.440
 981  985  987 1 111.400 677.808
 986  985  987 1 123.400 694.544
 985  987  988 1 116.900 694.544
 987  988  989 1 109.500 292.880
 987  988  990 1 109.500 292.880
 987  988  991 1 109.500 418.400
 989  988  990 1 107.800 276.144
 989  988  991 1 110.700 313.800
 990  988  991 1 110.700 313.800
 988  991  992 1 110.700 313.800
 988  991  993 1 110.700 313.800
 988  991  994 1 112.700 488.273
 992  991  993 1 107.800 276.144
 992  991  994 1 110.700 313.800
 993  991  994 1 110.700 313.800
 991  994  995 1 110.700 313.800
 991  994  996 1 110.700 313.800
 991  994  997 1 112.700 488.273
 995  994  996 1 107.800 276.144
 995  994  997 1 110.700 313.800
 996  994  997 1 110.700 313.800
 994  997  998 1 110.700 313.800
 994  997  999 1 110.700 313.800
 994  997 1000 1 112.700 488.273
 998  997  999 1 107.800 276.144
 998  997 1000 1 110.700 313.800
 999  997 1000 1 110.700 313.800
 997 1000 1001 1 110.700 313.800
 997 1000 1002 1 110.700 313.800
 997 1000 1003 1 112.700 488.273
1001 1000 1002 1 107.800 276.144
1001 1000 1003 1 110.700 313.800
1002 1000 1003 1 110.700 313.800
1000 1003 1004 1 110.700 313.800
1000 1003 1005 1 110.700 313.800
1000 1003 1006 1 112.700 488.273
1004 1003 1005 1 107.800 276.144
1004 1003 1006 1 110.700 313.800
1005 1003 1006 1 110.700 313.800
1003 1006 1007 1 110.700 313.800
1003 1006 1008 1 110.700 313.800
1003 1006 1009 1 112.700 488.273
1007 1006 1008 1 107.800 276.144
1007 1006 1009 1 110.700 313.800
1008 1006 1009 1 110.700 313.800
1006 1009 1010 1 110.700 313.800
1006 1009 1011 1 110.700 313.800
1006 1009 1012 1 112.700 488.273
1010 1009 1011 1 107.800 276.144
1010 1009 1012 1 110.700 313.800
1011 1009 1012 1 110.700 313.800
1009 1012 1013 1 110.700 313.800
1009 1012 1014 1 110.700 313.800
1009 1012 1015 1 112.700 488.273
1013 1012 1014 1 107.800 276.144
1013 1012 1015 1 110.700 313.800
1014 1012 1015 1 110.700 313.800
1012 1015 1016 1 110.700 313.800
1012 1015 1017 1 110.700 313.800
1012 1015 1018 1 112.700 488.273
1016 1015 1017 1 107.800 276.144
1016 1015 1018 1 110.700 313.800
1017 1015 1018 1 110.700 313.800
1015 1018 1019 1 110.700 313.800
1015 1018 1020 1 110.700 313.800
1015 1018 1021 1 112.700 488.273
1019 1018 1020 1 107.800 276.144
1019 1018 1021 1 110.700 313.800
1020 1018 1021 1 110.700 313.800
1018 1021 1022 1 110.700 313.800
1018 1021 1023 1 110.700 313.800
1018 1021 1024 1 112.700 488.273
1022 1021 1023 1 107.800 276.144
1022 1021 1024 1 110.700 313.800
1023 1021 1024 1 110.700 313.800
1021 1024 1025 1 110.700 313.800
1021 1024 1026 1 110.700 313.800
1021 1024 1027 1 112.700 488.273
1025 1024 1026 1 107.800 276.144
1025 1024 1027 1 110.700 313.800
1026 1024 1027 1 110.700 313.800
1024 1027 1028 1 110.700 313.800
1024 1027 1029 1 110.700 313.800
1024 1027 1030 1 112.700 488.273
1028 1027 1029 1 107.800 276.144
1028 1027 1030 1 110.700 313.800
1029 1027 1030 1 110.700 313.800
1027 1030 1031 1 110.700 313.800
1027 1030 1032 1 110.700 313.800
1027 1030 1033 1 112.700 488.273
1031 1030 1032 1 107.800 276.144
1031 1030 1033 1 110.700 313.800
1032 1030 1033 1 110.700 313.800
1030 1033 1034 1 110.700 313.800
1030 1033 1035 1 110.700 313.800
1030 1033 1036 1 112.700 488.273
1034 1033 1035 1 107.800 276.144
1034 1033 1036 1 110.700 313.800
1035 1033 1036 1 110.700 313.800
1033 1036 1037 1 110.700 313.800
1033 1036 1038 1 110.700 313.800
1033 1036 1039 1 112.700 488.273
1037 1036 1038 1 107.800 276.144
1037 1036 1039 1 110.700 313.800
1038 1036 1039 1 110.700 313.800
1036 1039 1040 1 110.700 313.800
1036 1039 1041 1 110.700 313.800
1036 1039 1042 1 110.700 313.800
1040 1039 1041 1 107.800 276.144
1040 1039 1042 1 107.800 276.144
1041 1039 1042 1 107.800 276.144
1043 1044 1045 1 107.800 276.144
1043 1044 1046 1 107.800 276.144
1043 1044 1047 1 109.500 292.880
1045 1044 1046 1 107.800 276.144
1045 1044 1047 1 109.500 292.880
1046 1044 1047 1 109.500 292.880
 982 1047 1044 1 112.700000 488.273000
 982 1047 1048 1 112.700000 488.273000
 982 1047 1051 1 112.700000 488.273000
1044 1047 1048 1 124.000 585.760
1044 1047 1051 1 119.700 585.760
1048 1047 1051 1 120.700 711.280
1047 1048 1049 1 120.000 292.880
1047 1048 1050 1 120.000 292.880
1047 1048 1113 1 112.700000 488.273000
1049 1048 1050 1 117.000 292.880
1049 1048 1113 1 110.700000 313.800000
1050 1048 1113 1 110.700000 313.800000
1047 1051 1052 1 125.300 669.440
1047 1051 1053 1 111.400 677.808
1052 1051 1053 1 123.400 694.544
1051 1053 1054 1 116.900 694.544
1053 1054 1055 1 109.500 292.880
1053 1054 1056 1 109.500 292.880
1053 1054 1057 1 109.500 418.400
1055 1054 1056 1 107.800 276.144
1055 1054 1057 1 110.700 313.800
1056 1054 1057 1 110.700 313.800
1054 1057 1058 1 110.700 313.800
1054 1057 1059 1 110.700 313.800
1054 1057 1060 1 112.700 488.273
1058 1057 1059 1 107.800 276.144
1058 1057 1060 1 110.700 313.800
1059 1057 1060 1 110.700 313.800
1057 1060 1061 1 110.700 313.800
1057 1060 1062 1 110.700 313.800
1057 1060 1063 1 112.700 488.273
1061 1060 1062 1 107.800 276.144
1061 1060 1063 1 110.700 313.800
1062 1060 1063 1 110.700 313.800
1060 1063 1064 1 110.700 313.800
1060 1063 1065 1 110.700 313.800
1060 1063 1066 1 112.700 488.273
1064 1063 1065 1 107.800 276.144
1064 1063 1066 1 110.700 313.800
1065 1063 1066 1 110.700 313.800
1063 1066 1067 1 110.700 313.800
1063 1066 1068 1 110.700 313.800
1063 1066 1069 1 112.700 488.273
1067 1066 1068 1 107.800 276.144
1067 1066 1069 1 110.700 313.800
1068 1066 1069 1 110.700 313.800
1066 1069 1070 1 110.700 313.800
1066 1069 1071 1 110.700 313.800
1066 1069 1072 1 112.700 488.273
1070 1069 1071 1 107.800 276.144
1070 1069 1072 1 110.700 313.800
1071 1069 1072 1 110.700 313.800
1069 1072 1073 1 110.700 313.800
1069 1072 1074 1 110.700 313.800
1069 1072 1075 1 112.700 488.273
1073 1072 1074 1 107.800 276.144
1073 1072 1075 1 110.700 313.800
1074 1072 1075 1 110.700 313.800
1072 1075 1076 1 110.700 313.800
1072 1075 1077 1 110.700 313.800
1072 1075 1078 1 112.700 488.273
1076 1075 1077 1 107.800 276.144
1076 1075 1078 1 110.700 313.800
1077 1075 1078 1 110.700 313.800
1075 1078 1079 1 110.700 313.800
1075 1078 1080 1 110.700 313.800
1075 1078 1081 1 112.700 488.273
1079 1078 1080 1 107.800 276.144
1079 1078 1081 1 110.700 313.800
1080 1078 1081 1 110.700 313.800
1078 1081 1082 1 110.700 313.800
1078 1081 1083 1 110.700 313.800
1078 1081 1084 1 112.700 488.273
1082 1081 1083 1 107.800 276.144
1082 1081 1084 1 110.700 313.800
1083 1081 1084 1 110.700 313.800
1081 1084 1085 1 110.700 313.800
1081 1084 1086 1 110.700 313.800
1081 1084 1087 1 112.700 488.273
1085 1084 1086 1 107.800 276.144
1085 1084 1087 1 110.700 313.800
1086 1084 1087 1 110.700 313.800
1084 1087 1088 1 110.700 313.800
1084 1087 1089 1 110.700 313.800
1084 1087 1090 1 112.700 488.273
1088 1087 1089 1 107.800 276.144
1088 1087 1090 1 110.700 313.800
1089 1087 1090 1 110.700 313.800
1087 1090 1091 1 110.700 313.800
1087 1090 1092 1 110.700 313.800
1087 1090 1093 1 112.700 488.273
1091 1090 1092 1 107.800 276.144
1091 1090 1093 1 110.700 313.800
1092 1090 1093 1 110.700 313.800
1090 1093 1094 1 110.700 313.800
1090 1093 1095 1 110.700 313.800
1090 1093 1096 1 112.700 488.273
1094 1093 1095 1 107.800 276.144
1094 1093 1096 1 110.700 313.800
1095 1093 1096 1 110.700 313.800
1093 1096 1097 1 110.700 313.800
1093 1096 1098 1 110.700 313.800
1093 1096 1099 1 112.700 488.273
1097 1096 1098 1 107.800 276.144
1097 1096 1099 1 110.700 313.800
1098 1096 1099 1 110.700 313.800
1096 1099 1100 1 110.700 313.800
1096 1099 1101 1 110.700 313.800
1096 1099 1102 1 112.700 488.273
1100 1099 1101 1 107.800 276.144
1100 1099 1102 1 110.700 313.800
1101 1099 1102 1 110.700 313.800
1099 1102 1103 1 110.700 313.800
1099 1102 1104 1 110.700 313.800
1099 1102 1105 1 112.700 488.273
1103 1102 1104 1 107.800 276.144
1103 1102 1105 1 110.700 313.800
1104 1102 1105 1 110.700 313.800
1102 1105 1106 1 110.700 313.800
1102 1105 1107 1 110.700 313.800
1102 1105 1108 1 110.700 313.800
1106 1105 1107 1 107.800 276.144
1106 1105 1108 1 107.800 276.144
1107 1105 1108 1 107.800 276.144
1109 1110 1111 1 107.800 276.144
1109 1110 1112 1 107.800 276.144
1109 1110 1113 1 109.500 292.880
1111 1110 1112 1 107.800 276.144
1111 1110 1113 1 109.500 292.880
1112 1110 1113 1 109.500 292.880
1048 1113 1110 1 112.700000 488.273000
1048 1113 1114 1 112.700000 488.273000
1048 1113 1117 1 112.700000 488.273000
1110 1113 1114 1 124.000 585.760
1110 1113 1117 1 119.700 585.760
1114 1113 1117 1 120.700 711.280
1113 1114 1115 1 120.000 292.880
1113 1114 1116 1 120.000 292.880
1113 1114 1179 1 112.700000 488.273000
1115 1114 1116 1 117.000 292.880
1115 1114 1179 1 110.700000 313.800000
1116 1114 1179 1 110.700000 313.800000
1113 1117 1118 1 125.300 669.440
1113 1117 1119 1 111.400 677.808
1118 1117 1119 1 123.400 694.544
1117 1119 1120 1 116.900 694.544
1119 1120 1121 1 109.500 292.880
1119 1120 1122 1 109.500 292.880
1119 1120 1123 1 109.500 418.400
1121 1120 1122 1 107.800 276.144
1121 1120 1123 1 110.700 313.800
1122 1120 1123 1 110.700 313.800
1120 1123 1124 1 110.700 313.800
1120 1123 1125 1 110.700 313.800
1120 1123 1126 1 112.700 488.273
1124 1123 1125 1 107.800 276.144
1124 1123 1126 1 110.700 313.800
1125 1123 1126 1 110.700 313.800
1123 1126 1127 1 110.700 313.800
1123 1126 1128 1 110.700 313.800
1123 1126 1129 1 112.700 488.273
1127 1126 1128 1 107.800 276.144
1127 1126 1129 1 110.700 313.800
1128 1126 1129 1 110.700 313.800
1126 1129 1130 1 110.700 313.800
1126 1129 1131 1 110.700 313.800
1126 1129 1132 1 112.700 488.273
1130 1129 1131 1 107.800 276.144
1130 1129 1132 1 110.700 313.800
1131 1129 1132 1 110.700 313.800
1129 1132 1133 1 110.700 313.800
1129 1132 1134 1 110.700 313.800
1129 1132 1135 1 112.700 488.273
1133 1132 1134 1 107.800 276.144
1133 1132 1135 1 110.700 313.800
1134 1132 1135 1 110.700 313.800
1132 1135 1136 1 110.700 313.800
1132 1135 1137 1 110.700 313.800
1132 1135 1138 1 112.700 488.273
1136 1135 1137 1 107.800 276.144
1136 1135 1138 1 110.700 313.800
1137 1135 1138 1 110.700 313.800
1135 1138 1139 1 110.700 313.800
1135 1138 1140 1 110.700 313.800
1135 1138 1141 1 112.700 488.273
1139 1138 1140 1 107.800 276.144
1139 1138 1141 1 110.700 313.800
1140 1138 1141 1 110.700 313.800
1138 1141 1142 1 110.700 313.800
1138 1141 1143 1 110.700 313.800
1138 1141 1144 1 112.700 488.273
1142 1141 1143 1 107.800 276.144
1142 1141 1144 1 110.700 313.800
1143 1141 1144 1 110.700 313.800
1141 1144 1145 1 110.700 313.800
1141 1144 1146 1 110.700 313.800
1141 1144 1147 1 112.700 488.273
1145 1144 1146 1 107.800 276.144
1145 1144 1147 1 110.700 313.800
1146 1144 1147 1 110.700 313.800
1144 1147 1148 1 110.700 313.800
1144 1147 1149 1 110.700 313.800
1144 1147 1150 1 112.700 488.273
1148 1147 1149 1 107.800 276.144
1148 1147 1150 1 110.700 313.800
1149 1147 1150 1 110.700 313.800
1147 1150 1151 1 110.700 313.800
1147 1150 1152 1 110.700 313.800
1147 1150 1153 1 112.700 488.273
1151 1150 1152 1 107.800 276.144
1151 1150 1153 1 110.700 313.800
1152 1150 1153 1 110.700 313.800
1150 1153 1154 1 110.700 313.800
1150 1153 1155 1 110.700 313.800
1150 1153 1156 1 112.700 488.273
1154 1153 1155 1 107.800 276.144
1154 1153 1156 1 110.700 313.800
1155 1153 1156 1 110.700 313.800
1153 1156 1157 1 110.700 313.800
1153 1156 1158 1 110.700 313.800
1153 1156 1159 1 112.700 488.273
1157 1156 1158 1 107.800 276.144
1157 1156 1159 1 110.700 313.800
1158 1156 1159 1 110.700 313.800
1156 1159 1160 1 110.700 313.800
1156 1159 1161 1 110.700 313.800
1156 1159 1162 1 112.700 488.273
1160 1159 1161 1 107.800 276.144
1160 1159 1162 1 110.700 313.800
1161 1159 1162 1 110.700 313.800
1159 1162 1163 1 110.700 313.800
1159 1162 1164 1 110.700 313.800
1159 1162 1165 1 112.700 488.273
1163 1162 1164 1 107.800 276.144
1163 1162 1165 1 110.700 313.800
1164 1162 1165 1 110.700 313.800
1162 1165 1166 1 110.700 313.800
1162 1165 1167 1 110.700 313.800
1162 1165 1168 1 112.700 488.273
1166 1165 1167 1 107.800 276.144
1166 1165 1168 1 110.700 313.800
1167 1165 1168 1 110.700 313.800
1165 1168 1169 1 110.700 313.800
1165 1168 1170 1 110.700 313.800
1165 1168 1171 1 112.700 488.273
1169 1168 1170 1 107.800 276.144
1169 1168 1171 1 110.700 313.800
1170 1168 1171 1 110.700 313.800
1168 1171 1172 1 110.700 313.800
1168 1171 1173 1 110.700 313.800
1168 1171 1174 1 110.700 313.800
1172 1171 1173 1 107.800 276.144
1172 1171 1174 1 107.800 276.144
1173 1171 1174 1 107.800 276.144
1175 1176 1177 1 107.800 276.144
1175 1176 1178 1 107.800 276.144
1175 1176 1179 1 109.500 292.880
1177 1176 1178 1 107.800 276.144
1177 1176 1179 1 109.500 292.880
1178 1176 1179 1 109.500 292.880
1114 1179 1176 1 112.700000 488.273000
1114 1179 1180 1 112.700000 488.273000
1114 1179 1183 1 112.700000 488.273000
1176 1179 1180 1 124.000 585.760
1176 1179 1183 1 119.700 585.760
1180 1179 1183 1 120.700 711.280
1179 1180 1181 1 120.000 292.880
1179 1180 1182 1 120.000 292.880
1179 1180 1227 1 112.700000 488.273000
1181 1180 1182 1 117.000 292.880
1181 1180 1227 1 110.700000 313.800000
1182 1180 1227 1 110.700000 313.800000
1179 1183 1184 1 125.300 669.440
1179 1183 1185 1 111.400 677.808
1184 1183 1185 1 123.400 694.544
1183 1185 1186 1 116.900 694.544
1185 1186 1187 1 109.500 292.880
1185 1186 1188 1 109.500 292.880
1185 1186 1189 1 109.500 418.400
1187 1186 1188 1 107.800 276.144
1187 1186 1189 1 110.700 313.800
1188 1186 1189 1 110.700 313.800
1186 1189 1190 1 110.700 313.800
1186 1189 1191 1 110.700 313.800
1186 1189 1192 1 112.700 488.273
1190 1189 1191 1 107.800 276.144
1190 1189 1192 1 110.700 313.800
1191 1189 1192 1 110.700 313.800
1189 1192 1193 1 110.700 313.800
1189 1192 1194 1 110.700 313.800
1189 1192 1195 1 112.700 488.273
1193 1192 1194 1 107.800 276.144
1193 1192 1195 1 110.700 313.800
1194 1192 1195 1 110.700 313.800
1192 1195 1196 1 110.700 313.800
1192 1195 1197 1 110.700 313.800
1192 1195 1198 1 112.700 488.273
1196 1195 1197 1 107.800 276.144
1196 1195 1198 1 110.700 313.800
1197 1195 1198 1 110.700 313.800
1195 1198 1199 1 110.700 313.800
1195 1198 1200 1 110.700 313.800
1195 1198 1201 1 112.700 488.273
1199 1198 1200 1 107.800 276.144
1199 1198 1201 1 110.700 313.800
1200 1198 1201 1 110.700 313.800
1198 1201 1202 1 110.700 313.800
1198 1201 1203 1 110.700 313.800
1198 1201 1204 1 112.700 488.273
1202 1201 1203 1 107.800 276.144
1202 1201 1204 1 110.700 313.800
1203 1201 1204 1 110.700 313.800
1201 1204 1205 1 110.700 313.800
1201 1204 1206 1 110.700 313.800
1201 1204 1207 1 112.700 488.273
1205 1204 1206 1 107.800 276.144
1205 1204 1207 1 110.700 313.800
1206 1204 1207 1 110.700 313.800
1204 1207 1208 1 110.700 313.800
1204 1207 1209 1 110.700 313.800
1204 1207 1210 1 112.700 488.273
1208 1207 1209 1 107.800 276.144
1208 1207 1210 1 110.700 313.800
1209 1207 1210 1 110.700 313.800
1207 1210 1211 1 110.700 313.800
1207 1210 1212 1 110.700 313.800
1207 1210 1213 1 112.700 488.273
1211 1210 1212 1 107.800 276.144
1211 1210 1213 1 110.700 313.800
1212 1210 1213 1 110.700 313.800
1210 1213 1214 1 110.700 313.800
1210 1213 1215 1 110.700 313.800
1210 1213 1216 1 112.700 488.273
1214 1213 1215 1 107.800 276.144
1214 1213 1216 1 110.700 313.800
1215 1213 1216 1 110.700 313.800
1213 1216 1217 1 110.700 313.800
1213 1216 1218 1 110.700 313.800
1213 1216 1219 1 112.700 488.273
1217 1216 1218 1 107.800 276.144
1217 1216 1219 1 110.700 313.800
1218 1216 1219 1 110.700 313.800
1216 1219 1220 1 110.700 313.800
1216 1219 1221 1 110.700 313.800
1216 1219 1222 1 110.700 313.800
1220 1219 1221 1 107.800 276.144
1220 1219 1222 1 107.800 276.144
1221 1219 1222 1 107.800 276.144
1223 1224 1225 1 107.800 276.144
1223 1224 1226 1 107.800 276.144
1223 1224 1227 1 109.500 292.880
1225 1224 1226 1 107.800 276.144
1225 1224 1227 1 109.500 292.880
1226 1224 1227 1 109.500 292.880
1180 1227 1224 1 112.700000 488.273000
1180 1227 1228 1 112.700000 488.273000
1180 1227 1231 1 112.700000 488.273000
1224 1227 1228 1 124.000 585.760
1224 1227 1231 1 119.700 585.760
1228 1227 1231 1 120.700 711.280
1227 1228 1229 1 120.000 292.880
1227 1228 1230 1 120.000 292.880
1227 1228 1263 1 112.700000 488.273000
1229 1228 1230 1 117.000 292.880
1229 1228 1263 1 110.700000 313.800000
1230 1228 1263 1 110.700000 313.800000
1227 1231 1232 1 125.300 669.440
1227 1231 1233 1 111.400 677.808
1232 1231 1233 1 123.400 694.544
1231 1233 1234 1 116.900 694.544
1233 1234 1235 1 109.500 292.880
1233 1234 1236 1 109.500 292.880
1233 1234 1237 1 109.500 418.400
1235 1234 1236 1 107.800 276.144
1235 1234 1237 1 110.700 313.800
1236 1234 1237 1 110.700 313.800
1234 1237 1238 1 110.700 313.800
1234 1237 1239 1 112.700 488.273
1234 1237 1246 1 112.700 488.273
1238 1237 1239 1 110.700 313.800
1238 1237 1246 1 110.700 313.800
1239 1237 1246 1 112.700 488.273
1237 1239 1240 1 110.700 313.800
1237 1239 1241 1 110.700 313.800
1237 1239 1242 1 112.700 488.273
1240 1239 1241 1 107.800 276.144
1240 1239 1242 1 110.700 313.800
1241 1239 1242 1 110.700 313.800
1239 1242 1243 1 110.700 313.800
1239 1242 1244 1 110.700 313.800
1239 1242 1245 1 110.700 313.800
1243 1242 1244 1 107.800 276.144
1243 1242 1245 1 107.800 276.144
1244 1242 1245 1 107.800 276.144
1237 1246 1247 1 110.700 313.800
1237 1246 1248 1 110.700 313.800
1237 1246 1249 1 112.700 488.273
1247 1246 1248 1 107.800 276.144
1247 1246 1249 1 110.700 313.800
1248 1246 1249 1 110.700 313.800
1246 1249 1250 1 110.700 313.800
1246 1249 1251 1 110.700 313.800
1246 1249 1252 1 112.700 488.273
1250 1249 1251 1 107.800 276.144
1250 1249 1252 1 110.700 313.800
1251 1249 1252 1 110.700 313.800
1249 1252 1253 1 110.700 313.800
1249 1252 1254 1 110.700 313.800
1249 1252 1255 1 112.700 488.273
1253 1252 1254 1 107.800 276.144
1253 1252 1255 1 110.700 313.800
1254 1252 1255 1 110.700 313.800
1252 1255 1256 1 110.700 313.800
1252 1255 1257 1 110.700 313.800
1252 1255 1258 1 110.700 313.800
1256 1255 1257 1 107.800 276.144
1256 1255 1258 1 107.800 276.144
1257 1255 1258 1 107.800 276.144
1259 1260 1261 1 107.800 276.144
1259 1260 1262 1 107.800 276.144
1259 1260 1263 1 109.500 292.880
1261 1260 1262 1 107.800 276.144
1261 1260 1263 1 109.500 292.880
1262 1260 1263 1 109.500 292.880
1228 1263 1260 1 112.700000 488.273000
1228 1263 1264 1 112.700000 488.273000
1228 1263 1267 1 112.700000 488.273000
1260 1263 1264 1 124.000 585.760
1260 1263 1267 1 119.700 585.760
1264 1263 1267 1 120.700 711.280
1263 1264 1265 1 120.000 292.880
1263 1264 1266 1 120.000 292.880
1263 1264 1311 1 112.700000 488.273000
1265 1264 1266 1 117.000 292.880
1265 1264 1311 1 110.700000 313.800000
1266 1264 1311 1 110.700000 313.800000
1263 1267 1268 1 125.300 669.440
1263 1267 1269 1 111.400 677.808
1268 1267 1269 1 123.400 694.544
1267 1269 1270 1 116.900 694.544
1269 1270 1271 1 109.500 292.880
1269 1270 1272 1 109.500 292.880
1269 1270 1273 1 109.500 418.400
1271 1270 1272 1 107.800 276.144
1271 1270 1273 1 110.700 313.800
1272 1270 1273 1 110.700 313.800
1270 1273 1274 1 110.700 313.800
1270 1273 1275 1 110.700 313.800
1270 1273 1276 1 112.700 488.273
1274 1273 1275 1 107.800 276.144
1274 1273 1276 1 110.700 313.800
1275 1273 1276 1 110.700 313.800
1273 1276 1277 1 110.700 313.800
1273 1276 1278 1 110.700 313.800
1273 1276 1279 1 112.700 488.273
1277 1276 1278 1 107.800 276.144
1277 1276 1279 1 110.700 313.800
1278 1276 1279 1 110.700 313.800
1276 1279 1280 1 110.700 313.800
1276 1279 1281 1 110.700 313.800
1276 1279 1282 1 112.700 488.273
1280 1279 1281 1 107.800 276.144
1280 1279 1282 1 110.700 313.800
1281 1279 1282 1 110.700 313.800
1279 1282 1283 1 110.700 313.800
1279 1282 1284 1 110.700 313.800
1279 1282 1285 1 112.700 488.273
1283 1282 1284 1 107.800 276.144
1283 1282 1285 1 110.700 313.800
1284 1282 1285 1 110.700 313.800
1282 1285 1286 1 110.700 313.800
1282 1285 1287 1 110.700 313.800
1282 1285 1288 1 112.700 488.273
1286 1285 1287 1 107.800 276.144
1286 1285 1288 1 110.700 313.800
1287 1285 1288 1 110.700 313.800
1285 1288 1289 1 110.700 313.800
1285 1288 1290 1 110.700 313.800
1285 1288 1291 1 112.700 488.273
1289 1288 1290 1 107.800 276.144
1289 1288 1291 1 110.700 313.800
1290 1288 1291 1 110.700 313.800
1288 1291 1292 1 110.700 313.800
1288 1291 1293 1 110.700 313.800
1288 1291 1294 1 112.700 488.273
1292 1291 1293 1 107.800 276.144
1292 1291 1294 1 110.700 313.800
1293 1291 1294 1 110.700 313.800
1291 1294 1295 1 110.700 313.800
1291 1294 1296 1 110.700 313.800
1291 1294 1297 1 112.700 488.273
1295 1294 1296 1 107.800 276.144
1295 1294 1297 1 110.700 313.800
1296 1294 1297 1 110.700 313.800
1294 1297 1298 1 110.700 313.800
1294 1297 1299 1 110.700 313.800
1294 1297 1300 1 112.700 488.273
1298 1297 1299 1 107.800 276.144
1298 1297 1300 1 110.700 313.800
1299 1297 1300 1 110.700 313.800
1297 1300 1301 1 110.700 313.800
1297 1300 1302 1 110.700 313.800
1297 1300 1303 1 112.700 488.273
1301 1300 1302 1 107.800 276.144
1301 1300 1303 1 110.700 313.800
1302 1300 1303 1 110.700 313.800
1300 1303 1304 1 110.700 313.800
1300 1303 1305 1 110.700 313.800
1300 1303 1306 1 110.700 313.800
1304 1303 1305 1 107.800 276.144
1304 1303 1306 1 107.800 276.144
1305 1303 1306 1 107.800 276.144
1307 1308 1309 1 107.800 276.144
1307 1308 1310 1 107.800 276.144
1307 1308 1311 1 109.500 292.880
1309 1308 1310 1 107.800 276.144
1309 1308 1311 1 109.500 292.880
1310 1308 1311 1 109.500 292.880
1264 1311 1308 1 112.700000 488.273000
1264 1311 1312 1 112.700000 488.273000
1264 1311 1315 1 112.700000 488.273000
1308 1311 1312 1 124.000 585.760
1308 1311 1315 1 119.700 585.760
1312 1311 1315 1 120.700 711.280
1311 1312 1313 1 120.000 292.880
1311 1312 1314 1 120.000 292.880
1311 1312 1377 1 112.700000 488.273000
1313 1312 1314 1 117.000 292.880
1313 1312 1377 1 110.700000 313.800000
1314 1312 1377 1 110.700000 313.800000
1311 1315 1316 1 125.300 669.440
1311 1315 1317 1 111.400 677.808
1316 1315 1317 1 123.400 694.544
1315 1317 1318 1 116.900 694.544
1317 1318 1319 1 109.500 292.880
1317 1318 1320 1 109.500 292.880
1317 1318 1321 1 109.500 418.400
1319 1318 1320 1 107.800 276.144
1319 1318 1321 1 110.700 313.800
1320 1318 1321 1 110.700 313.800
1318 1321 1322 1 110.700 313.800
1318 1321 1323 1 110.700 313.800
1318 1321 1324 1 112.700 488.273
1322 1321 1323 1 107.800 276.144
1322 1321 1324 1 110.700 313.800
1323 1321 1324 1 110.700 313.800
1321 1324 1325 1 110.700 313.800
1321 1324 1326 1 110.700 313.800
1321 1324 1327 1 112.700 488.273
1325 1324 1326 1 107.800 276.144
1325 1324 1327 1 110.700 313.800
1326 1324 1327 1 110.700 313.800
1324 1327 1328 1 110.700 313.800
1324 1327 1329 1 110.700 313.800
1324 1327 1330 1 112.700 488.273
1328 1327 1329 1 107.800 276.144
1328 1327 1330 1 110.700 313.800
1329 1327 1330 1 110.700 313.800
1327 1330 1331 1 110.700 313.800
1327 1330 1332 1 110.700 313.800
1327 1330 1333 1 112.700 488.273
1331 1330 1332 1 107.800 276.144
1331 1330 1333 1 110.700 313.800
1332 1330 1333 1 110.700 313.800
1330 1333 1334 1 110.700 313.800
1330 1333 1335 1 110.700 313.800
1330 1333 1336 1 112.700 488.273
1334 1333 1335 1 107.800 276.144
1334 1333 1336 1 110.700 313.800
1335 1333 1336 1 110.700 313.800
1333 1336 1337 1 110.700 313.800
1333 1336 1338 1 110.700 313.800
1333 1336 1339 1 112.700 488.273
1337 1336 1338 1 107.800 276.144
1337 1336 1339 1 110.700 313.800
1338 1336 1339 1 110.700 313.800
1336 1339 1340 1 110.700 313.800
1336 1339 1341 1 110.700 313.800
1336 1339 1342 1 112.700 488.273
1340 1339 1341 1 107.800 276.144
1340 1339 1342 1 110.700 313.800
1341 1339 1342 1 110.700 313.800
1339 1342 1343 1 110.700 313.800
1339 1342 1344 1 110.700 313.800
1339 1342 1345 1 112.700 488.273
1343 1342 1344 1 107.800 276.144
1343 1342 1345 1 110.700 313.800
1344 1342 1345 1 110.700 313.800
1342 1345 1346 1 110.700 313.800
1342 1345 1347 1 110.700 313.800
1342 1345 1348 1 112.700 488.273
1346 1345 1347 1 107.800 276.144
1346 1345 1348 1 110.700 313.800
1347 1345 1348 1 110.700 313.800
1345 1348 1349 1 110.700 313.800
1345 1348 1350 1 110.700 313.800
1345 1348 1351 1 112.700 488.273
1349 1348 1350 1 107.800 276.144
1349 1348 1351 1 110.700 313.800
1350 1348 1351 1 110.700 313.800
1348 1351 1352 1 110.700 313.800
1348 1351 1353 1 110.700 313.800
1348 1351 1354 1 112.700 488.273
1352 1351 1353 1 107.800 276.144
1352 1351 1354 1 110.700 313.800
1353 1351 1354 1 110.700 313.800
1351 1354 1355 1 110.700 313.800
1351 1354 1356 1 110.700 313.800
1351 1354 1357 1 112.700 488.273
1355 1354 1356 1 107.800 276.144
1355 1354 1357 1 110.700 313.800
1356 1354 1357 1 110.700 313.800
1354 1357 1358 1 110.700 313.800
1354 1357 1359 1 110.700 313.800
1354 1357 1360 1 112.700 488.273
1358 1357 1359 1 107.800 276.144
1358 1357 1360 1 110.700 313.800
1359 1357 1360 1 110.700 313.800
1357 1360 1361 1 110.700 313.800
1357 1360 1362 1 110.700 313.800
1357 1360 1363 1 112.700 488.273
1361 1360 1362 1 107.800 276.144
1361 1360 1363 1 110.700 313.800
1362 1360 1363 1 110.700 313.800
1360 1363 1364 1 110.700 313.800
1360 1363 1365 1 110.700 313.800
1360 1363 1366 1 112.700 488.273
1364 1363 1365 1 107.800 276.144
1364 1363 1366 1 110.700 313.800
1365 1363 1366 1 110.700 313.800
1363 1366 1367 1 110.700 313.800
1363 1366 1368 1 110.700 313.800
1363 1366 1369 1 112.700 488.273
1367 1366 1368 1 107.800 276.144
1367 1366 1369 1 110.700 313.800
1368 1366 1369 1 110.700 313.800
1366 1369 1370 1 110.700 313.800
1366 1369 1371 1 110.700 313.800
1366 1369 1372 1 110.700 313.800
1370 1369 1371 1 107.800 276.144
1370 1369 1372 1 107.800 276.144
1371 1369 1372 1 107.800 276.144
1373 1374 1375 1 107.800 276.144
1373 1374 1376 1 107.800 276.144
1373 1374 1377 1 109.500 292.880
1375 1374 1376 1 107.800 276.144
1375 1374 1377 1 109.500 292.880
1376 1374 1377 1 109.500 292.880
1312 1377 1374 1 112.700000 488.273000
1312 1377 1378 1 112.700000 488.273000
1312 1377 1381 1 112.700000 488.273000
1374 1377 1378 1 124.000 585.760
1374 1377 1381 1 119.700 585.760
1378 1377 1381 1 120.700 711.280
1377 1378 1379 1 120.000 292.880
1377 1378 1380 1 120.000 292.880
1377 1378 1413 1 112.700000 488.273000
1379 1378 1380 1 117.000 292.880
1379 1378 1413 1 110.700000 313.800000
1380 1378 1413 1 110.700000 313.800000
1377 1381 1382 1 125.300 669.440
1377 1381 1383 1 111.400 677.808
1382 1381 1383 1 123.400 694.544
1381 1383 1384 1 116.900 694.544
1383 1384 1385 1 109.500 292.880
1383 1384 1386 1 109.500 292.880
1383 1384 1387 1 109.500 418.400
1385 1384 1386 1 107.800 276.144
1385 1384 1387 1 110.700 313.800
1386 1384 1387 1 110.700 313.800
1384 1387 1388 1 110.700 313.800
1384 1387 1389 1 112.700 488.273
1384 1387 1396 1 112.700 488.273
1388 1387 1389 1 110.700 313.800
1388 1387 1396 1 110.700 313.800
1389 1387 1396 1 112.700 488.273
1387 1389 1390 1 110.700 313.800
1387 1389 1391 1 110.700 313.800
1387 1389 1392 1 112.700 488.273
1390 1389 1391 1 107.800 276.144
1390 1389 1392 1 110.700 313.800
1391 1389 1392 1 110.700 313.800
1389 1392 1393 1 110.700 313.800
1389 1392 1394 1 110.700 313.800
1389 1392 1395 1 110.700 313.800
1393 1392 1394 1 107.800 276.144
1393 1392 1395 1 107.800 276.144
1394 1392 1395 1 107.800 276.144
1387 1396 1397 1 110.700 313.800
1387 1396 1398 1 110.700 313.800
1387 1396 1399 1 112.700 488.273
1397 1396 1398 1 107.800 276.144
1397 1396 1399 1 110.700 313.800
1398 1396 1399 1 110.700 313.800
1396 1399 1400 1 110.700 313.800
1396 1399 1401 1 110.700 313.800
1396 1399 1402 1 112.700 488.273
1400 1399 1401 1 107.800 276.144
1400 1399 1402 1 110.700 313.800
1401 1399 1402 1 110.700 313.800
1399 1402 1403 1 110.700 313.800
1399 1402 1404 1 110.700 313.800
1399 1402 1405 1 112.700 488.273
1403 1402 1404 1 107.800 276.144
1403 1402 1405 1 110.700 313.800
1404 1402 1405 1 110.700 313.800
1402 1405 1406 1 110.700 313.800
1402 1405 1407 1 110.700 313.800
1402 1405 1408 1 110.700 313.800
1406 1405 1407 1 107.800 276.144
1406 1405 1408 1 107.800 276.144
1407 1405 1408 1 107.800 276.144
1409 1410 1411 1 107.800 276.144
1409 1410 1412 1 107.800 276.144
1409 1410 1413 1 109.500 292.880
1411 1410 1412 1 107.800 276.144
1411 1410 1413 1 109.500 292.880
1412 1410 1413 1 109.500 292.880
1378 1413 1410 1 112.700000 488.273000
1378 1413 1414 1 112.700000 488.273000
1378 1413 1417 1 112.700000 488.273000
1410 1413 1414 1 124.000 585.760
1410 1413 1417 1 119.700 585.760
1414 1413 1417 1 120.700 711.280
1413 1414 1415 1 120.000 292.880
1413 1414 1416 1 120.000 292.880
1413 1414 1461 1 112.700000 488.273000
1415 1414 1416 1 117.000 292.880
1415 1414 1461 1 110.700000 313.800000
1416 1414 1461 1 110.700000 313.800000
1413 1417 1418 1 125.300 669.440
1413 1417 1419 1 111.400 677.808
1418 1417 1419 1 123.400 694.544
1417 1419 1420 1 116.900 694.544
1419 1420 1421 1 109.500 292.880
1419 1420 1422 1 109.500 292.880
1419 1420 1423 1 109.500 418.400
1421 1420 1422 1 107.800 276.144
1421 1420 1423 1 110.700 313.800
1422 1420 1423 1 110.700 313.800
1420 1423 1424 1 110.700 313.800
1420 1423 1425 1 110.700 313.800
1420 1423 1426 1 112.700 488.273
1424 1423 1425 1 107.800 276.144
1424 1423 1426 1 110.700 313.800
1425 1423 1426 1 110.700 313.800
1423 1426 1427 1 110.700 313.800
1423 1426 1428 1 110.700 313.800
1423 1426 1429 1 112.700 488.273
1427 1426 1428 1 107.800 276.144
1427 1426 1429 1 110.700 313.800
1428 1426 1429 1 110.700 313.800
1426 1429 1430 1 110.700 313.800
1426 1429 1431 1 110.700 313.800
1426 1429 1432 1 112.700 488.273
1430 1429 1431 1 107.800 276.144
1430 1429 1432 1 110.700 313.800
1431 1429 1432 1 110.700 313.800
1429 1432 1433 1 110.700 313.800
1429 1432 1434 1 110.700 313.800
1429 1432 1435 1 112.700 488.273
1433 1432 1434 1 107.800 276.144
1433 1432 1435 1 110.700 313.800
1434 1432 1435 1 110.700 313.800
1432 1435 1436 1 110.700 313.800
1432 1435 1437 1 110.700 313.800
1432 1435 1438 1 112.700 488.273
1436 1435 1437 1 107.800 276.144
1436 1435 1438 1 110.700 313.800
1437 1435 1438 1 110.700 313.800
1435 1438 1439 1 110.700 313.800
1435 1438 1440 1 110.700 313.800
1435 1438 1441 1 112.700 488.273
1439 1438 1440 1 107.800 276.144
1439 1438 1441 1 110.700 313.800
1440 1438 1441 1 110.700 313.800
1438 1441 1442 1 110.700 313.800
1438 1441 1443 1 110.700 313.800
1438 1441 1444 1 112.700 488.273
1442 1441 1443 1 107.800 276.144
1442 1441 1444 1 110.700 313.800
1443 1441 1444 1 110.700 313.800
1441 1444 1445 1 110.700 313.800
1441 1444 1446 1 110.700 313.800
1441 1444 1447 1 112.700 488.273
1445 1444 1446 1 107.800 276.144
1445 1444 1447 1 110.700 313.800
1446 1444 1447 1 110.700 313.800
1444 1447 1448 1 110.700 313.800
1444 1447 1449 1 110.700 313.800
1444 1447 1450 1 112.700 488.273
1448 1447 1449 1 107.800 276.144
1448 1447 1450 1 110.700 313.800
1449 1447 1450 1 110.700 313.800
1447 1450 1451 1 110.700 313.800
1447 1450 1452 1 110.700 313.800
1447 1450 1453 1 112.700 488.273
1451 1450 1452 1 107.800 276.144
1451 1450 1453 1 110.700 313.800
1452 1450 1453 1 110.700 313.800
1450 1453 1454 1 110.700 313.800
1450 1453 1455 1 110.700 313.800
1450 1453 1456 1 110.700 313.800
1454 1453 1455 1 107.800 276.144
1454 1453 1456 1 107.800 276.144
1455 1453 1456 1 107.800 276.144
1457 1458 1459 1 107.800 276.144
1457 1458 1460 1 107.800 276.144
1457 1458 1461 1 109.500 292.880
1459 1458 1460 1 107.800 276.144
1459 1458 1461 1 109.500 292.880
1460 1458 1461 1 109.500 292.880
1414 1461 1458 1 112.700000 488.273000
1414 1461 1462 1 112.700000 488.273000
1414 1461 1465 1 112.700000 488.273000
1458 1461 1462 1 124.000 585.760
1458 1461 1465 1 119.700 585.760
1462 1461 1465 1 120.700 711.280
1461 1462 1463 1 120.000 292.880
1461 1462 1464 1 120.000 292.880
1461 1462 1509 1 112.700000 488.273000
1463 1462 1464 1 117.000 292.880
1463 1462 1509 1 110.700000 313.800000
1464 1462 1509 1 110.700000 313.800000
1461 1465 1466 1 125.300 669.440
1461 1465 1467 1 111.400 677.808
1466 1465 1467 1 123.400 694.544
1465 1467 1468 1 116.900 694.544
1467 1468 1469 1 109.500 292.880
1467 1468 1470 1 109.500 292.880
1467 1468 1471 1 109.500 418.400
1469 1468 1470 1 107.800 276.144
1469 1468 1471 1 110.700 313.800
1470 1468 1471 1 110.700 313.800
1468 1471 1472 1 110.700 313.800
1468 1471 1473 1 110.700 313.800
1468 1471 1474 1 112.700 488.273
1472 1471 1473 1 107.800 276.144
1472 1471 1474 1 110.700 313.800
1473 1471 1474 1 110.700 313.800
1471 1474 1475 1 110.700 313.800
1471 1474 1476 1 110.700 313.800
1471 1474 1477 1 112.700 488.273
1475 1474 1476 1 107.800 276.144
1475 1474 1477 1 110.700 313.800
1476 1474 1477 1 110.700 313.800
1474 1477 1478 1 110.700 313.800
1474 1477 1479 1 110.700 313.800
1474 1477 1480 1 112.700 488.273
1478 1477 1479 1 107.800 276.144
1478 1477 1480 1 110.700 313.800
1479 1477 1480 1 110.700 313.800
1477 1480 1481 1 110.700 313.800
1477 1480 1482 1 110.700 313.800
1477 1480 1483 1 112.700 488.273
1481 1480 1482 1 107.800 276.144
1481 1480 1483 1 110.700 313.800
1482 1480 1483 1 110.700 313.800
1480 1483 1484 1 110.700 313.800
1480 1483 1485 1 110.700 313.800
1480 1483 1486 1 112.700 488.273
1484 1483 1485 1 107.800 276.144
1484 1483 1486 1 110.700 313.800
1485 1483 1486 1 110.700 313.800
1483 1486 1487 1 110.700 313.800
1483 1486 1488 1 110.700 313.800
1483 1486 1489 1 112.700 488.273
1487 1486 1488 1 107.800 276.144
1487 1486 1489 1 110.700 313.800
1488 1486 1489 1 110.700 313.800
1486 1489 1490 1 110.700 313.800
1486 1489 1491 1 110.700 313.800
1486 1489 1492 1 112.700 488.273
1490 1489 1491 1 107.800 276.144
1490 1489 1492 1 110.700 313.800
1491 1489 1492 1 110.700 313.800
1489 1492 1493 1 110.700 313.800
1489 1492 1494 1 110.700 313.800
1489 1492 1495 1 112.700 488.273
1493 1492 1494 1 107.800 276.144
1493 1492 1495 1 110.700 313.800
1494 1492 1495 1 110.700 313.800
1492 1495 1496 1 110.700 313.800
1492 1495 1497 1 110.700 313.800
1492 1495 1498 1 112.700 488.273
1496 1495 1497 1 107.800 276.144
1496 1495 1498 1 110.700 313.800
1497 1495 1498 1 110.700 313.800
1495 1498 1499 1 110.700 313.800
1495 1498 1500 1 110.700 313.800
1495 1498 1501 1 112.700 488.273
1499 1498 1500 1 107.800 276.144
1499 1498 1501 1 110.700 313.800
1500 1498 1501 1 110.700 313.800
1498 1501 1502 1 110.700 313.800
1498 1501 1503 1 110.700 313.800
1498 1501 1504 1 110.700 313.800
1502 1501 1503 1 107.800 276.144
1502 1501 1504 1 107.800 276.144
1503 1501 1504 1 107.800 276.144
1505 1506 1507 1 107.800 276.144
1505 1506 1508 1 107.800 276.144
1505 1506 1509 1 109.500 292.880
1507 1506 1508 1 107.800 276.144
1507 1506 1509 1 109.500 292.880
1508 1506 1509 1 109.500 292.880
1462 1509 1506 1 112.700000 488.273000
1462 1509 1510 1 112.700000 488.273000
1462 1509 1513 1 112.700000 488.273000
1506 1509 1510 1 124.000 585.760
1506 1509 1513 1 119.700 585.760
1510 1509 1513 1 120.700 711.280
1509 1510 1511 1 120.000 292.880
1509 1510 1512 1 120.000 292.880
1509 1510 1545 1 112.700000 488.273000
1511 1510 1512 1 117.000 292.880
1511 1510 1545 1 110.700000 313.800000
1512 1510 1545 1 110.700000 313.800000
1509 1513 1514 1 125.300 669.440
1509 1513 1515 1 111.400 677.808
1514 1513 1515 1 123.400 694.544
1513 1515 1516 1 116.900 694.544
1515 1516 1517 1 109.500 292.880
1515 1516 1518 1 109.500 292.880
1515 1516 1519 1 109.500 418.400
1517 1516 1518 1 107.800 276.144
1517 1516 1519 1 110.700 313.800
1518 1516 1519 1 110.700 313.800
1516 1519 1520 1 110.700 313.800
1516 1519 1521 1 112.700 488.273
1516 1519 1528 1 112.700 488.273
1520 1519 1521 1 110.700 313.800
1520 1519 1528 1 110.700 313.800
1521 1519 1528 1 112.700 488.273
1519 1521 1522 1 110.700 313.800
1519 1521 1523 1 110.700 313.800
1519 1521 1524 1 112.700 488.273
1522 1521 1523 1 107.800 276.144
1522 1521 1524 1 110.700 313.800
1523 1521 1524 1 110.700 313.800
1521 1524 1525 1 110.700 313.800
1521 1524 1526 1 110.700 313.800
1521 1524 1527 1 110.700 313.800
1525 1524 1526 1 107.800 276.144
1525 1524 1527 1 107.800 276.144
1526 1524 1527 1 107.800 276.144
1519 1528 1529 1 110.700 313.800
1519 1528 1530 1 110.700 313.800
1519 1528 1531 1 112.700 488.273
1529 1528 1530 1 107.800 276.144
1529 1528 1531 1 110.700 313.800
1530 1528 1531 1 110.700 313.800
1528 1531 1532 1 110.700 313.800
1528 1531 1533 1 110.700 313.800
1528 1531 1534 1 112.700 488.273
1532 1531 1533 1 107.800 276.144
1532 1531 1534 1 110.700 313.800
1533 1531 1534 1 110.700 313.800
1531 1534 1535 1 110.700 313.800
1531 1534 1536 1 110.700 313.800
1531 1534 1537 1 112.700 488.273
1535 1534 1536 1 107.800 276.144
1535 1534 1537 1 110.700 313.800
1536 1534 1537 1 110.700 313.800
1534 1537 1538 1 110.700 313.800
1534 1537 1539 1 110.700 313.800
1534 1537 1540 1 110.700 313.800
1538 1537 1539 1 107.800 276.144
1538 1537 1540 1 107.800 276.144
1539 1537 1540 1 107.800 276.144
1541 1542 1543 1 107.800 276.144
1541 1542 1544 1 107.800 276.144
1541 1542 1545 1 109.500 292.880
1543 1542 1544 1 107.800 276.144
1543 1542 1545 1 109.500 292.880
1544 1542 1545 1 109.500 292.880
1510 1545 1542 1 112.700000 488.273000
1510 1545 1546 1 112.700000 488.273000
1510 1545 1549 1 112.700000 488.273000
1542 1545 1546 1 124.000 585.760
1542 1545 1549 1 119.700 585.760
1546 1545 1549 1 120.700 711.280
1545 1546 1547 1 120.000 292.880
1545 1546 1548 1 120.000 292.880
1545 1546 1581 1 112.700000 488.273000
1547 1546 1548 1 117.000 292.880
1547 1546 1581 1 110.700000 313.800000
1548 1546 1581 1 110.700000 313.800000
1545 1549 1550 1 125.300 669.440
1545 1549 1551 1 111.400 677.808
1550 1549 1551 1 123.400 694.544
1549 1551 1552 1 116.900 694.544
1551 1552 1553 1 109.500 292.880
1551 1552 1554 1 109.500 292.880
1551 1552 1555 1 109.500 418.400
1553 1552 1554 1 107.800 276.144
1553 1552 1555 1 110.700 313.800
1554 1552 1555 1 110.700 313.800
1552 1555 1556 1 110.700 313.800
1552 1555 1557 1 112.700 488.273
1552 1555 1564 1 112.700 488.273
1556 1555 1557 1 110.700 313.800
1556 1555 1564 1 110.700 313.800
1557 1555 1564 1 112.700 488.273
1555 1557 1558 1 110.700 313.800
1555 1557 1559 1 110.700 313.800
1555 1557 1560 1 112.700 488.273
1558 1557 1559 1 107.800 276.144
1558 1557 1560 1 110.700 313.800
1559 1557 1560 1 110.700 313.800
1557 1560 1561 1 110.700 313.800
1557 1560 1562 1 110.700 313.800
1557 1560 1563 1 110.700 313.800
1561 1560 1562 1 107.800 276.144
1561 1560 1563 1 107.800 276.144
1562 1560 1563 1 107.800 276.144
1555 1564 1565 1 110.700 313.800
1555 1564 1566 1 110.700 313.800
1555 1564 1567 1 112.700 488.273
1565 1564 1566 1 107.800 276.144
1565 1564 1567 1 110.700 313.800
1566 1564 1567 1 110.700 313.800
1564 1567 1568 1 110.700 313.800
1564 1567 1569 1 110.700 313.800
1564 1567 1570 1 112.700 488.273
1568 1567 1569 1 107.800 276.144
1568 1567 1570 1 110.700 313.800
1569 1567 1570 1 110.700 313.800
1567 1570 1571 1 110.700 313.800
1567 1570 1572 1 110.700 313.800
1567 1570 1573 1 112.700 488.273
1571 1570 1572 1 107.800 276.144
1571 1570 1573 1 110.700 313.800
1572 1570 1573 1 110.700 313.800
1570 1573 1574 1 110.700 313.800
1570 1573 1575 1 110.700 313.800
1570 1573 1576 1 110.700 313.800
1574 1573 1575 1 107.800 276.144
1574 1573 1576 1 107.800 276.144
1575 1573 1576 1 107.800 276.144
1577 1578 1579 1 107.800 276.144
1577 1578 1580 1 107.800 276.144
1577 1578 1581 1 109.500 292.880
1579 1578 1580 1 107.800 276.144
1579 1578 1581 1 109.500 292.880
1580 1578 1581 1 109.500 292.880
1546 1581 1578 1 112.700000 488.273000
1546 1581 1582 1 112.700000 488.273000
1546 1581 1585 1 112.700000 488.273000
1578 1581 1582 1 124.000 585.760
1578 1581 1585 1 119.700 585.760
1582 1581 1585 1 120.700 711.280
1581 1582 1583 1 120.000 292.880
1581 1582 1584 1 120.000 292.880
1581 1582 1629 1 112.700000 488.273000
1583 1582 1584 1 117.000 292.880
1583 1582 1629 1 110.700000 313.800000
1584 1582 1629 1 110.700000 313.800000
1581 1585 1586 1 125.300 669.440
1581 1585 1587 1 111.400 677.808
1586 1585 1587 1 123.400 694.544
1585 1587 1588 1 116.900 694.544
1587 1588 1589 1 109.500 292.880
1587 1588 1590 1 109.500 292.880
1587 1588 1591 1 109.500 418.400
1589 1588 1590 1 107.800 276.144
1589 1588 1591 1 110.700 313.800
1590 1588 1591 1 110.700 313.800
1588 1591 1592 1 110.700 313.800
1588 1591 1593 1 110.700 313.800
1588 1591 1594 1 112.700 488.273
1592 1591 1593 1 107.800 276.144
1592 1591 1594 1 110.700 313.800
1593 1591 1594 1 110.700 313.800
1591 1594 1595 1 110.700 313.800
1591 1594 1596 1 110.700 313.800
1591 1594 1597 1 112.700 488.273
1595 1594 1596 1 107.800 276.144
1595 1594 1597 1 110.700 313.800
1596 1594 1597 1 110.700 313.800
1594 1597 1598 1 110.700 313.800
1594 1597 1599 1 110.700 313.800
1594 1597 1600 1 112.700 488.273
1598 1597 1599 1 107.800 276.144
1598 1597 1600 1 110.700 313.800
1599 1597 1600 1 110.700 313.800
1597 1600 1601 1 110.700 313.800
1597 1600 1602 1 110.700 313.800
1597 1600 1603 1 112.700 488.273
1601 1600 1602 1 107.800 276.144
1601 1600 1603 1 110.700 313.800
1602 1600 1603 1 110.700 313.800
1600 1603 1604 1 110.700 313.800
1600 1603 1605 1 110.700 313.800
1600 1603 1606 1 112.700 488.273
1604 1603 1605 1 107.800 276.144
1604 1603 1606 1 110.700 313.800
1605 1603 1606 1 110.700 313.800
1603 1606 1607 1 110.700 313.800
1603 1606 1608 1 110.700 313.800
1603 1606 1609 1 112.700 488.273
1607 1606 1608 1 107.800 276.144
1607 1606 1609 1 110.700 313.800
1608 1606 1609 1 110.700 313.800
1606 1609 1610 1 110.700 313.800
1606 1609 1611 1 110.700 313.800
1606 1609 1612 1 112.700 488.273
1610 1609 1611 1 107.800 276.144
1610 1609 1612 1 110.700 313.800
1611 1609 1612 1 110.700 313.800
1609 1612 1613 1 110.700 313.800
1609 1612 1614 1 110.700 313.800
1609 1612 1615 1 112.700 488.273
1613 1612 1614 1 107.800 276.144
1613 1612 1615 1 110.700 313.800
1614 1612 1615 1 110.700 313.800
1612 1615 1616 1 110.700 313.800
1612 1615 1617 1 110.700 313.800
1612 1615 1618 1 112.700 488.273
1616 1615 1617 1 107.800 276.144
1616 1615 1618 1 110.700 313.800
1617 1615 1618 1 110.700 313.800
1615 1618 1619 1 110.700 313.800
1615 1618 1620 1 110.700 313.800
1615 1618 1621 1 112.700 488.273
1619 1618 1620 1 107.800 276.144
1619 1618 1621 1 110.700 313.800
1620 1618 1621 1 110.700 313.800
1618 1621 1622 1 110.700 313.800
1618 1621 1623 1 110.700 313.800
1618 1621 1624 1 110.700 313.800
1622 1621 1623 1 107.800 276.144
1622 1621 1624 1 107.800 276.144
1623 1621 1624 1 107.800 276.144
1625 1626 1627 1 107.800 276.144
1625 1626 1628 1 107.800 276.144
1625 1626 1629 1 109.500 292.880
1627 1626 1628 1 107.800 276.144
1627 1626 1629 1 109.500 292.880
1628 1626 1629 1 109.500 292.880
1582 1629 1626 1 112.700000 488.273000
1582 1629 1630 1 112.700000 488.273000
1582 1629 1633 1 112.700000 488.273000
1626 1629 1630 1 124.000 585.760
1626 1629 1633 1 119.700 585.760
1630 1629 1633 1 120.700 711.280
1629 1630 1631 1 120.000 292.880
1629 1630 1632 1 120.000 292.880
1629 1630 1665 1 112.700000 488.273000
1631 1630 1632 1 117.000 292.880
1631 1630 1665 1 110.700000 313.800000
1632 1630 1665 1 110.700000 313.800000
1629 1633 1634 1 125.300 669.440
1629 1633 1635 1 111.400 677.808
1634 1633 1635 1 123.400 694.544
1633 1635 1636 1 116.900 694.544
1635 1636 1637 1 109.500 292.880
1635 1636 1638 1 109.500 292.880
1635 1636 1639 1 109.500 418.400
1637 1636 1638 1 107.800 276.144
1637 1636 1639 1 110.700 313.800
1638 1636 1639 1 110.700 313.800
1636 1639 1640 1 110.700 313.800
1636 1639 1641 1 112.700 488.273
1636 1639 1648 1 112.700 488.273
1640 1639 1641 1 110.700 313.800
1640 1639 1648 1 110.700 313.800
1641 1639 1648 1 112.700 488.273
1639 1641 1642 1 110.700 313.800
1639 1641 1643 1 110.700 313.800
1639 1641 1644 1 112.700 488.273
1642 1641 1643 1 107.800 276.144
1642 1641 1644 1 110.700 313.800
1643 1641 1644 1 110.700 313.800
1641 1644 1645 1 110.700 313.800
1641 1644 1646 1 110.700 313.800
1641 1644 1647 1 110.700 313.800
1645 1644 1646 1 107.800 276.144
1645 1644 1647 1 107.800 276.144
1646 1644 1647 1 107.800 276.144
1639 1648 1649 1 110.700 313.800
1639 1648 1650 1 110.700 313.800
1639 1648 1651 1 112.700 488.273
1649 1648 1650 1 107.800 276.144
1649 1648 1651 1 110.700 313.800
1650 1648 1651 1 110.700 313.800
1648 1651 1652 1 110.700 313.800
1648 1651 1653 1 110.700 313.800
1648 1651 1654 1 112.700 488.273
1652 1651 1653 1 107.800 276.144
1652 1651 1654 1 110.700 313.800
1653 1651 1654 1 110.700 313.800
1651 1654 1655 1 110.700 313.800
1651 1654 1656 1 110.700 313.800
1651 1654 1657 1 112.700 488.273
1655 1654 1656 1 107.800 276.144
1655 1654 1657 1 110.700 313.800
1656 1654 1657 1 110.700 313.800
1654 1657 1658 1 110.700 313.800
1654 1657 1659 1 110.700 313.800
1654 1657 1660 1 110.700 313.800
1658 1657 1659 1 107.800 276.144
1658 1657 1660 1 107.800 276.144
1659 1657 1660 1 107.800 276.144
1661 1662 1663 1 107.800 276.144
1661 1662 1664 1 107.800 276.144
1661 1662 1665 1 109.500 292.880
1663 1662 1664 1 107.800 276.144
1663 1662 1665 1 109.500 292.880
1664 1662 1665 1 109.500 292.880
1630 1665 1662 1 112.700000 488.273000
1630 1665 1666 1 112.700000 488.273000
1630 1665 1669 1 112.700000 488.273000
1662 1665 1666 1 124.000 585.760
1662 1665 1669 1 119.700 585.760
1666 1665 1669 1 120.700 711.280
1665 1666 1667 1 120.000 292.880
1665 1666 1668 1 120.000 292.880
1665 1666 1701 1 112.700000 488.273000
1667 1666 1668 1 117.000 292.880
1667 1666 1701 1 110.700000 313.800000
1668 1666 1701 1 110.700000 313.800000
1665 1669 1670 1 125.300 669.440
1665 1669 1671 1 111.400 677.808
1670 1669 1671 1 123.400 694.544
1669 1671 1672 1 116.900 694.544
1671 1672 1673 1 109.500 292.880
1671 1672 1674 1 109.500 292.880
1671 1672 1675 1 109.500 418.400
1673 1672 1674 1 107.800 276.144
1673 1672 1675 1 110.700 313.800
1674 1672 1675 1 110.700 313.800
1672 1675 1676 1 110.700 313.800
1672 1675 1677 1 112.700 488.273
1672 1675 1684 1 112.700 488.273
1676 1675 1677 1 110.700 313.800
1676 1675 1684 1 110.700 313.800
1677 1675 1684 1 112.700 488.273
1675 1677 1678 1 110.700 313.800
1675 1677 1679 1 110.700 313.800
1675 1677 1680 1 112.700 488.273
1678 1677 1679 1 107.800 276.144
1678 1677 1680 1 110.700 313.800
1679 1677 1680 1 110.700 313.800
1677 1680 1681 1 110.700 313.800
1677 1680 1682 1 110.700 313.800
1677 1680 1683 1 110.700 313.800
1681 1680 1682 1 107.800 276.144
1681 1680 1683 1 107.800 276.144
1682 1680 1683 1 107.800 276.144
1675 1684 1685 1 110.700 313.800
1675 1684 1686 1 110.700 313.800
1675 1684 1687 1 112.700 488.273
1685 1684 1686 1 107.800 276.144
1685 1684 1687 1 110.700 313.800
1686 1684 1687 1 110.700 313.800
1684 1687 1688 1 110.700 313.800
1684 1687 1689 1 110.700 313.800
1684 1687 1690 1 112.700 488.273
1688 1687 1689 1 107.800 276.144
1688 1687 1690 1 110.700 313.800
1689 1687 1690 1 110.700 313.800
1687 1690 1691 1 110.700 313.800
1687 1690 1692 1 110.700 313.800
1687 1690 1693 1 112.700 488.273
1691 1690 1692 1 107.800 276.144
1691 1690 1693 1 110.700 313.800
1692 1690 1693 1 110.700 313.800
1690 1693 1694 1 110.700 313.800
1690 1693 1695 1 110.700 313.800
1690 1693 1696 1 110.700 313.800
1694 1693 1695 1 107.800 276.144
1694 1693 1696 1 107.800 276.144
1695 1693 1696 1 107.800 276.144
1697 1698 1699 1 107.800 276.144
1697 1698 1700 1 107.800 276.144
1697 1698 1701 1 109.500 292.880
1699 1698 1700 1 107.800 276.144
1699 1698 1701 1 109.500 292.880
1700 1698 1701 1 109.500 292.880
1666 1701 1698 1 112.700000 488.273000
1666 1701 1702 1 112.700000 488.273000
1666 1701 1705 1 112.700000 488.273000
1698 1701 1702 1 124.000 585.760
1698 1701 1705 1 119.700 585.760
1702 1701 1705 1 120.700 711.280
1701 1702 1703 1 120.000 292.880
1701 1702 1704 1 120.000 292.880
1701 1702 1737 1 112.700000 488.273000
1703 1702 1704 1 117.000 292.880
1703 1702 1737 1 110.700000 313.800000
1704 1702 1737 1 110.700000 313.800000
1701 1705 1706 1 125.300 669.440
1701 1705 1707 1 111.400 677.808
1706 1705 1707 1 123.400 694.544
1705 1707 1708 1 116.900 694.544
1707 1708 1709 1 109.500 292.880
1707 1708 1710 1 109.500 292.880
1707 1708 1711 1 109.500 418.400
1709 1708 1710 1 107.800 276.144
1709 1708 1711 1 110.700 313.800
1710 1708 1711 1 110.700 313.800
1708 1711 1712 1 110.700 313.800
1708 1711 1713 1 112.700 488.273
1708 1711 1720 1 112.700 488.273
1712 1711 1713 1 110.700 313.800
1712 1711 1720 1 110.700 313.800
1713 1711 1720 1 112.700 488.273
1711 1713 1714 1 110.700 313.800
1711 1713 1715 1 110.700 313.800
1711 1713 1716 1 112.700 488.273
1714 1713 1715 1 107.800 276.144
1714 1713 1716 1 110.700 313.800
1715 1713 1716 1 110.700 313.800
1713 1716 1717 1 110.700 313.800
1713 1716 1718 1 110.700 313.800
1713 1716 1719 1 110.700 313.800
1717 1716 1718 1 107.800 276.144
1717 1716 1719 1 107.800 276.144
1718 1716 1719 1 107.800 276.144
1711 1720 1721 1 110.700 313.800
1711 1720 1722 1 110.700 313.800
1711 1720 1723 1 112.700 488.273
1721 1720 1722 1 107.800 276.144
1721 1720 1723 1 110.700 313.800
1722 1720 1723 1 110.700 313.800
1720 1723 1724 1 110.700 313.800
1720 1723 1725 1 110.700 313.800
1720 1723 1726 1 112.700 488.273
1724 1723 1725 1 107.800 276.144
1724 1723 1726 1 110.700 313.800
1725 1723 1726 1 110.700 313.800
1723 1726 1727 1 110.700 313.800
1723 1726 1728 1 110.700 313.800
1723 1726 1729 1 112.700 488.273
1727 1726 1728 1 107.800 276.144
1727 1726 1729 1 110.700 313.800
1728 1726 1729 1 110.700 313.800
1726 1729 1730 1 110.700 313.800
1726 1729 1731 1 110.700 313.800
1726 1729 1732 1 110.700 313.800
1730 1729 1731 1 107.800 276.144
1730 1729 1732 1 107.800 276.144
1731 1729 1732 1 107.800 276.144
1733 1734 1735 1 107.800 276.144
1733 1734 1736 1 107.800 276.144
1733 1734 1737 1 109.500 292.880
1735 1734 1736 1 107.800 276.144
1735 1734 1737 1 109.500 292.880
1736 1734 1737 1 109.500 292.880
1702 1737 1734 1 112.700000 488.273000
1702 1737 1738 1 112.700000 488.273000
1702 1737 1741 1 112.700000 488.273000
1734 1737 1738 1 124.000 585.760
1734 1737 1741 1 119.700 585.760
1738 1737 1741 1 120.700 711.280
1737 1738 1739 1 120.000 292.880
1737 1738 1740 1 120.000 292.880
1737 1738 1785 1 112.700000 488.273000
1739 1738 1740 1 117.000 292.880
1739 1738 1785 1 110.700000 313.800000
1740 1738 1785 1 110.700000 313.800000
1737 1741 1742 1 125.300 669.440
1737 1741 1743 1 111.400 677.808
1742 1741 1743 1 123.400 694.544
1741 1743 1744 1 116.900 694.544
1743 1744 1745 1 109.500 292.880
1743 1744 1746 1 109.500 292.880
1743 1744 1747 1 109.500 418.400
1745 1744 1746 1 107.800 276.144
1745 1744 1747 1 110.700 313.800
1746 1744 1747 1 110.700 313.800
1744 1747 1748 1 110.700 313.800
1744 1747 1749 1 110.700 313.800
1744 1747 1750 1 112.700 488.273
1748 1747 1749 1 107.800 276.144
1748 1747 1750 1 110.700 313.800
1749 1747 1750 1 110.700 313.800
1747 1750 1751 1 110.700 313.800
1747 1750 1752 1 110.700 313.800
1747 1750 1753 1 112.700 488.273
1751 1750 1752 1 107.800 276.144
1751 1750 1753 1 110.700 313.800
1752 1750 1753 1 110.700 313.800
1750 1753 1754 1 110.700 313.800
1750 1753 1755 1 110.700 313.800
1750 1753 1756 1 112.700 488.273
1754 1753 1755 1 107.800 276.144
1754 1753 1756 1 110.700 313.800
1755 1753 1756 1 110.700 313.800
1753 1756 1757 1 110.700 313.800
1753 1756 1758 1 110.700 313.800
1753 1756 1759 1 112.700 488.273
1757 1756 1758 1 107.800 276.144
1757 1756 1759 1 110.700 313.800
1758 1756 1759 1 110.700 313.800
1756 1759 1760 1 110.700 313.800
1756 1759 1761 1 110.700 313.800
1756 1759 1762 1 112.700 488.273
1760 1759 1761 1 107.800 276.144
1760 1759 1762 1 110.700 313.800
1761 1759 1762 1 110.700 313.800
1759 1762 1763 1 110.700 313.800
1759 1762 1764 1 110.700 313.800
1759 1762 1765 1 112.700 488.273
1763 1762 1764 1 107.800 276.144
1763 1762 1765 1 110.700 313.800
1764 1762 1765 1 110.700 313.800
1762 1765 1766 1 110.700 313.800
1762 1765 1767 1 110.700 313.800
1762 1765 1768 1 112.700 488.273
1766 1765 1767 1 107.800 276.144
1766 1765 1768 1 110.700 313.800
1767 1765 1768 1 110.700 313.800
1765 1768 1769 1 110.700 313.800
1765 1768 1770 1 110.700 313.800
1765 1768 1771 1 112.700 488.273
1769 1768 1770 1 107.800 276.144
1769 1768 1771 1 110.700 313.800
1770 1768 1771 1 110.700 313.800
1768 1771 1772 1 110.700 313.800
1768 1771 1773 1 110.700 313.800
1768 1771 1774 1 112.700 488.273
1772 1771 1773 1 107.800 276.144
1772 1771 1774 1 110.700 313.800
1773 1771 1774 1 110.700 313.800
1771 1774 1775 1 110.700 313.800
1771 1774 1776 1 110.700 313.800
1771 1774 1777 1 112.700 488.273
1775 1774 1776 1 107.800 276.144
1775 1774 1777 1 110.700 313.800
1776 1774 1777 1 110.700 313.800
1774 1777 1778 1 110.700 313.800
1774 1777 1779 1 110.700 313.800
1774 1777 1780 1 110.700 313.800
1778 1777 1779 1 107.800 276.144
1778 1777 1780 1 107.800 276.144
1779 1777 1780 1 107.800 276.144
1781 1782 1783 1 107.800 276.144
1781 1782 1784 1 107.800 276.144
1781 1782 1785 1 109.500 292.880
1783 1782 1784 1 107.800 276.144
1783 1782 1785 1 109.500 292.880
1784 1782 1785 1 109.500 292.880
1738 1785 1782 1 112.700000 488.273000
1738 1785 1786 1 112.700000 488.273000
1738 1785 1789 1 112.700000 488.273000
1782 1785 1786 1 124.000 585.760
1782 1785 1789 1 119.700 585.760
1786 1785 1789 1 120.700 711.280
1785 1786 1787 1 120.000 292.880
1785 1786 1788 1 120.000 292.880
1785 1786 1833 1 112.700000 488.273000
1787 1786 1788 1 117.000 292.880
1787 1786 1833 1 110.700000 313.800000
1788 1786 1833 1 110.700000 313.800000
1785 1789 1790 1 125.300 669.440
1785 1789 1791 1 111.400 677.808
1790 1789 1791 1 123.400 694.544
1789 1791 1792 1 116.900 694.544
1791 1792 1793 1 109.500 292.880
1791 1792 1794 1 109.500 292.880
1791 1792 1795 1 109.500 418.400
1793 1792 1794 1 107.800 276.144
1793 1792 1795 1 110.700 313.800
1794 1792 1795 1 110.700 313.800
1792 1795 1796 1 110.700 313.800
1792 1795 1797 1 110.700 313.800
1792 1795 1798 1 112.700 488.273
1796 1795 1797 1 107.800 276.144
1796 1795 1798 1 110.700 313.800
1797 1795 1798 1 110.700 313.800
1795 1798 1799 1 110.700 313.800
1795 1798 1800 1 110.700 313.800
1795 1798 1801 1 112.700 488.273
1799 1798 1800 1 107.800 276.144
1799 1798 1801 1 110.700 313.800
1800 1798 1801 1 110.700 313.800
1798 1801 1802 1 110.700 313.800
1798 1801 1803 1 110.700 313.800
1798 1801 1804 1 112.700 488.273
1802 1801 1803 1 107.800 276.144
1802 1801 1804 1 110.700 313.800
1803 1801 1804 1 110.700 313.800
1801 1804 1805 1 110.700 313.800
1801 1804 1806 1 110.700 313.800
1801 1804 1807 1 112.700 488.273
1805 1804 1806 1 107.800 276.144
1805 1804 1807 1 110.700 313.800
1806 1804 1807 1 110.700 313.800
1804 1807 1808 1 110.700 313.800
1804 1807 1809 1 110.700 313.800
1804 1807 1810 1 112.700 488.273
1808 1807 1809 1 107.800 276.144
1808 1807 1810 1 110.700 313.800
1809 1807 1810 1 110.700 313.800
1807 1810 1811 1 110.700 313.800
1807 1810 1812 1 110.700 313.800
1807 1810 1813 1 112.700 488.273
1811 1810 1812 1 107.800 276.144
1811 1810 1813 1 110.700 313.800
1812 1810 1813 1 110.700 313.800
1810 1813 1814 1 110.700 313.800
1810 1813 1815 1 110.700 313.800
1810 1813 1816 1 112.700 488.273
1814 1813 1815 1 107.800 276.144
1814 1813 1816 1 110.700 313.800
1815 1813 1816 1 110.700 313.800
1813 1816 1817 1 110.700 313.800
1813 1816 1818 1 110.700 313.800
1813 1816 1819 1 112.700 488.273
1817 1816 1818 1 107.800 276.144
1817 1816 1819 1 110.700 313.800
1818 1816 1819 1 110.700 313.800
1816 1819 1820 1 110.700 313.800
1816 1819 1821 1 110.700 313.800
1816 1819 1822 1 112.700 488.273
1820 1819 1821 1 107.800 276.144
1820 1819 1822 1 110.700 313.800
1821 1819 1822 1 110.700 313.800
1819 1822 1823 1 110.700 313.800
1819 1822 1824 1 110.700 313.800
1819 1822 1825 1 112.700 488.273
1823 1822 1824 1 107.800 276.144
1823 1822 1825 1 110.700 313.800
1824 1822 1825 1 110.700 313.800
1822 1825 1826 1 110.700 313.800
1822 1825 1827 1 110.700 313.800
1822 1825 1828 1 110.700 313.800
1826 1825 1827 1 107.800 276.144
1826 1825 1828 1 107.800 276.144
1827 1825 1828 1 107.800 276.144
1829 1830 1831 1 107.800 276.144
1829 1830 1832 1 107.800 276.144
1829 1830 1833 1 109.500 292.880
1831 1830 1832 1 107.800 276.144
1831 1830 1833 1 109.500 292.880
1832 1830 1833 1 109.500 292.880
1786 1833 1830 1 112.700000 488.273000
1786 1833 1834 1 112.700000 488.273000
1786 1833 1837 1 112.700000 488.273000
1830 1833 1834 1 124.000 585.760
1830 1833 1837 1 119.700 585.760
1834 1833 1837 1 120.700 711.280
1833 1834 1835 1 120.000 292.880
1833 1834 1836 1 120.000 292.880
1833 1834 1869 1 112.700000 488.273000
1835 1834 1836 1 117.000 292.880
1835 1834 1869 1 110.700000 313.800000
1836 1834 1869 1 110.700000 313.800000
1833 1837 1838 1 125.300 669.440
1833 1837 1839 1 111.400 677.808
1838 1837 1839 1 123.400 694.544
1837 1839 1840 1 116.900 694.544
1839 1840 1841 1 109.500 292.880
1839 1840 1842 1 109.500 292.880
1839 1840 1843 1 109.500 418.400
1841 1840 1842 1 107.800 276.144
1841 1840 1843 1 110.700 313.800
1842 1840 1843 1 110.700 313.800
1840 1843 1844 1 110.700 313.800
1840 1843 1845 1 112.700 488.273
1840 1843 1852 1 112.700 488.273
1844 1843 1845 1 110.700 313.800
1844 1843 1852 1 110.700 313.800
1845 1843 1852 1 112.700 488.273
1843 1845 1846 1 110.700 313.800
1843 1845 1847 1 110.700 313.800
1843 1845 1848 1 112.700 488.273
1846 1845 1847 1 107.800 276.144
1846 1845 1848 1 110.700 313.800
1847 1845 1848 1 110.700 313.800
1845 1848 1849 1 110.700 313.800
1845 1848 1850 1 110.700 313.800
1845 1848 1851 1 110.700 313.800
1849 1848 1850 1 107.800 276.144
1849 1848 1851 1 107.800 276.144
1850 1848 1851 1 107.800 276.144
1843 1852 1853 1 110.700 313.800
1843 1852 1854 1 110.700 313.800
1843 1852 1855 1 112.700 488.273
1853 1852 1854 1 107.800 276.144
1853 1852 1855 1 110.700 313.800
1854 1852 1855 1 110.700 313.800
1852 1855 1856 1 110.700 313.800
1852 1855 1857 1 110.700 313.800
1852 1855 1858 1 112.700 488.273
1856 1855 1857 1 107.800 276.144
1856 1855 1858 1 110.700 313.800
1857 1855 1858 1 110.700 313.800
1855 1858 1859 1 110.700 313.800
1855 1858 1860 1 110.700 313.800
1855 1858 1861 1 112.700 488.273
1859 1858 1860 1 107.800 276.144
1859 1858 1861 1 110.700 313.800
1860 1858 1861 1 110.700 313.800
1858 1861 1862 1 110.700 313.800
1858 1861 1863 1 110.700 313.800
1858 1861 1864 1 110.700 313.800
1862 1861 1863 1 107.800 276.144
1862 1861 1864 1 107.800 276.144
1863 1861 1864 1 107.800 276.144
1865 1866 1867 1 107.800 276.144
1865 1866 1868 1 107.800 276.144
1865 1866 1869 1 109.500 292.880
1867 1866 1868 1 107.800 276.144
1867 1866 1869 1 109.500 292.880
1868 1866 1869 1 109.500 292.880
1834 1869 1866 1 112.700000 488.273000
1834 1869 1870 1 112.700000 488.273000
1834 1869 1873 1 112.700000 488.273000
1866 1869 1870 1 124.000 585.760
1866 1869 1873 1 119.700 585.760
1870 1869 1873 1 120.700 711.280
1869 1870 1871 1 120.000 292.880
1869 1870 1872 1 120.000 292.880
1869 1870 1935 1 112.700000 488.273000
1871 1870 1872 1 117.000 292.880
1871 1870 1935 1 110.700000 313.800000
1872 1870 1935 1 110.700000 313.800000
1869 1873 1874 1 125.300 669.440
1869 1873 1875 1 111.400 677.808
1874 1873 1875 1 123.400 694.544
1873 1875 1876 1 116.900 694.544
1875 1876 1877 1 109.500 292.880
1875 1876 1878 1 109.500 292.880
1875 1876 1879 1 109.500 418.400
1877 1876 1878 1 107.800 276.144
1877 1876 1879 1 110.700 313.800
1878 1876 1879 1 110.700 313.800
1876 1879 1880 1 110.700 313.800
1876 1879 1881 1 110.700 313.800
1876 1879 1882 1 112.700 488.273
1880 1879 1881 1 107.800 276.144
1880 1879 1882 1 110.700 313.800
1881 1879 1882 1 110.700 313.800
1879 1882 1883 1 110.700 313.800
1879 1882 1884 1 110.700 313.800
1879 1882 1885 1 112.700 488.273
1883 1882 1884 1 107.800 276.144
1883 1882 1885 1 110.700 313.800
1884 1882 1885 1 110.700 313.800
1882 1885 1886 1 110.700 313.800
1882 1885 1887 1 110.700 313.800
1882 1885 1888 1 112.700 488.273
1886 1885 1887 1 107.800 276.144
1886 1885 1888 1 110.700 313.800
1887 1885 1888 1 110.700 313.800
1885 1888 1889 1 110.700 313.800
1885 1888 1890 1 110.700 313.800
1885 1888 1891 1 112.700 488.273
1889 1888 1890 1 107.800 276.144
1889 1888 1891 1 110.700 313.800
1890 1888 1891 1 110.700 313.800
1888 1891 1892 1 110.700 313.800
1888 1891 1893 1 110.700 313.800
1888 1891 1894 1 112.700 488.273
1892 1891 1893 1 107.800 276.144
1892 1891 1894 1 110.700 313.800
1893 1891 1894 1 110.700 313.800
1891 1894 1895 1 110.700 313.800
1891 1894 1896 1 110.700 313.800
1891 1894 1897 1 112.700 488.273
1895 1894 1896 1 107.800 276.144
1895 1894 1897 1 110.700 313.800
1896 1894 1897 1 110.700 313.800
1894 1897 1898 1 110.700 313.800
1894 1897 1899 1 110.700 313.800
1894 1897 1900 1 112.700 488.273
1898 1897 1899 1 107.800 276.144
1898 1897 1900 1 110.700 313.800
1899 1897 1900 1 110.700 313.800
1897 1900 1901 1 110.700 313.800
1897 1900 1902 1 110.700 313.800
1897 1900 1903 1 112.700 488.273
1901 1900 1902 1 107.800 276.144
1901 1900 1903 1 110.700 313.800
1902 1900 1903 1 110.700 313.800
1900 1903 1904 1 110.700 313.800
1900 1903 1905 1 110.700 313.800
1900 1903 1906 1 112.700 488.273
1904 1903 1905 1 107.800 276.144
1904 1903 1906 1 110.700 313.800
1905 1903 1906 1 110.700 313.800
1903 1906 1907 1 110.700 313.800
1903 1906 1908 1 110.700 313.800
1903 1906 1909 1 112.700 488.273
1907 1906 1908 1 107.800 276.144
1907 1906 1909 1 110.700 313.800
1908 1906 1909 1 110.700 313.800
1906 1909 1910 1 110.700 313.800
1906 1909 1911 1 110.700 313.800
1906 1909 1912 1 112.700 488.273
1910 1909 1911 1 107.800 276.144
1910 1909 1912 1 110.700 313.800
1911 1909 1912 1 110.700 313.800
1909 1912 1913 1 110.700 313.800
1909 1912 1914 1 110.700 313.800
1909 1912 1915 1 112.700 488.273
1913 1912 1914 1 107.800 276.144
1913 1912 1915 1 110.700 313.800
1914 1912 1915 1 110.700 313.800
1912 1915 1916 1 110.700 313.800
1912 1915 1917 1 110.700 313.800
1912 1915 1918 1 112.700 488.273
1916 1915 1917 1 107.800 276.144
1916 1915 1918 1 110.700 313.800
1917 1915 1918 1 110.700 313.800
1915 1918 1919 1 110.700 313.800
1915 1918 1920 1 110.700 313.800
1915 1918 1921 1 112.700 488.273
1919 1918 1920 1 107.800 276.144
1919 1918 1921 1 110.700 313.800
1920 1918 1921 1 110.700 313.800
1918 1921 1922 1 110.700 313.800
1918 1921 1923 1 110.700 313.800
1918 1921 1924 1 112.700 488.273
1922 1921 1923 1 107.800 276.144
1922 1921 1924 1 110.700 313.800
1923 1921 1924 1 110.700 313.800
1921 1924 1925 1 110.700 313.800
1921 1924 1926 1 110.700 313.800
1921 1924 1927 1 112.700 488.273
1925 1924 1926 1 107.800 276.144
1925 1924 1927 1 110.700 313.800
1926 1924 1927 1 110.700 313.800
1924 1927 1928 1 110.700 313.800
1924 1927 1929 1 110.700 313.800
1924 1927 1930 1 110.700 313.800
1928 1927 1929 1 107.800 276.144
1928 1927 1930 1 107.800 276.144
1929 1927 1930 1 107.800 276.144
1931 1932 1933 1 107.800 276.144
1931 1932 1934 1 107.800 276.144
1931 1932 1935 1 109.500 292.880
1933 1932 1934 1 107.800 276.144
1933 1932 1935 1 109.500 292.880
1934 1932 1935 1 109.500 292.880
1870 1935 1932 1 112.700000 488.273000
1870 1935 1936 1 112.700000 488.273000
1870 1935 1939 1 112.700000 488.273000
1932 1935 1936 1 124.000 585.760
1932 1935 1939 1 119.700 585.760
1936 1935 1939 1 120.700 711.280
1935 1936 1937 1 120.000 292.880
1935 1936 1938 1 120.000 292.880
1935 1936 2001 1 112.700000 488.273000
1937 1936 1938 1 117.000 292.880
1937 1936 2001 1 110.700000 313.800000
1938 1936 2001 1 110.700000 313.800000
1935 1939 1940 1 125.300 669.440
1935 1939 1941 1 111.400 677.808
1940 1939 1941 1 123.400 694.544
1939 1941 1942 1 116.900 694.544
1941 1942 1943 1 109.500 292.880
1941 1942 1944 1 109.500 292.880
1941 1942 1945 1 109.500 418.400
1943 1942 1944 1 107.800 276.144
1943 1942 1945 1 110.700 313.800
1944 1942 1945 1 110.700 313.800
1942 1945 1946 1 110.700 313.800
1942 1945 1947 1 110.700 313.800
1942 1945 1948 1 112.700 488.273
1946 1945 1947 1 107.800 276.144
1946 1945 1948 1 110.700 313.800
1947 1945 1948 1 110.700 313.800
1945 1948 1949 1 110.700 313.800
1945 1948 1950 1 110.700 313.800
1945 1948 1951 1 112.700 488.273
1949 1948 1950 1 107.800 276.144
1949 1948 1951 1 110.700 313.800
1950 1948 1951 1 110.700 313.800
1948 1951 1952 1 110.700 313.800
1948 1951 1953 1 110.700 313.800
1948 1951 1954 1 112.700 488.273
1952 1951 1953 1 107.800 276.144
1952 1951 1954 1 110.700 313.800
1953 1951 1954 1 110.700 313.800
1951 1954 1955 1 110.700 313.800
1951 1954 1956 1 110.700 313.800
1951 1954 1957 1 112.700 488.273
1955 1954 1956 1 107.800 276.144
1955 1954 1957 1 110.700 313.800
1956 1954 1957 1 110.700 313.800
1954 1957 1958 1 110.700 313.800
1954 1957 1959 1 110.700 313.800
1954 1957 1960 1 112.700 488.273
1958 1957 1959 1 107.800 276.144
1958 1957 1960 1 110.700 313.800
1959 1957 1960 1 110.700 313.800
1957 1960 1961 1 110.700 313.800
1957 1960 1962 1 110.700 313.800
1957 1960 1963 1 112.700 488.273
1961 1960 1962 1 107.800 276.144
1961 1960 1963 1 110.700 313.800
1962 1960 1963 1 110.700 313.800
1960 1963 1964 1 110.700 313.800
1960 1963 1965 1 110.700 313.800
1960 1963 1966 1 112.700 488.273
1964 1963 1965 1 107.800 276.144
1964 1963 1966 1 110.700 313.800
1965 1963 1966 1 110.700 313.800
1963 1966 1967 1 110.700 313.800
1963 1966 1968 1 110.700 313.800
1963 1966 1969 1 112.700 488.273
1967 1966 1968 1 107.800 276.144
1967 1966 1969 1 110.700 313.800
1968 1966 1969 1 110.700 313.800
1966 1969 1970 1 110.700 313.800
1966 1969 1971 1 110.700 313.800
1966 1969 1972 1 112.700 488.273
1970 1969 1971 1 107.800 276.144
1970 1969 1972 1 110.700 313.800
1971 1969 1972 1 110.700 313.800
1969 1972 1973 1 110.700 313.800
1969 1972 1974 1 110.700 313.800
1969 1972 1975 1 112.700 488.273
1973 1972 1974 1 107.800 276.144
1973 1972 1975 1 110.700 313.800
1974 1972 1975 1 110.700 313.800
1972 1975 1976 1 110.700 313.800
1972 1975 1977 1 110.700 313.800
1972 1975 1978 1 112.700 488.273
1976 1975 1977 1 107.800 276.144
1976 1975 1978 1 110.700 313.800
1977 1975 1978 1 110.700 313.800
1975 1978 1979 1 110.700 313.800
1975 1978 1980 1 110.700 313.800
1975 1978 1981 1 112.700 488.273
1979 1978 1980 1 107.800 276.144
1979 1978 1981 1 110.700 313.800
1980 1978 1981 1 110.700 313.800
1978 1981 1982 1 110.700 313.800
1978 1981 1983 1 110.700 313.800
1978 1981 1984 1 112.700 488.273
1982 1981 1983 1 107.800 276.144
1982 1981 1984 1 110.700 313.800
1983 1981 1984 1 110.700 313.800
1981 1984 1985 1 110.700 313.800
1981 1984 1986 1 110.700 313.800
1981 1984 1987 1 112.700 488.273
1985 1984 1986 1 107.800 276.144
1985 1984 1987 1 110.700 313.800
1986 1984 1987 1 110.700 313.800
1984 1987 1988 1 110.700 313.800
1984 1987 1989 1 110.700 313.800
1984 1987 1990 1 112.700 488.273
1988 1987 1989 1 107.800 276.144
1988 1987 1990 1 110.700 313.800
1989 1987 1990 1 110.700 313.800
1987 1990 1991 1 110.700 313.800
1987 1990 1992 1 110.700 313.800
1987 1990 1993 1 112.700 488.273
1991 1990 1992 1 107.800 276.144
1991 1990 1993 1 110.700 313.800
1992 1990 1993 1 110.700 313.800
1990 1993 1994 1 110.700 313.800
1990 1993 1995 1 110.700 313.800
1990 1993 1996 1 110.700 313.800
1994 1993 1995 1 107.800 276.144
1994 1993 1996 1 107.800 276.144
1995 1993 1996 1 107.800 276.144
1997 1998 1999 1 107.800 276.144
1997 1998 2000 1 107.800 276.144
1997 1998 2001 1 109.500 292.880
1999 1998 2000 1 107.800 276.144
1999 1998 2001 1 109.500 292.880
2000 1998 2001 1 109.500 292.880
1936 2001 1998 1 112.700000 488.273000
1936 2001 2002 1 112.700000 488.273000
1936 2001 2005 1 112.700000 488.273000
1998 2001 2002 1 124.000 585.760
1998 2001 2005 1 119.700 585.760
2002 2001 2005 1 120.700 711.280
2001 2002 2003 1 120.000 292.880
2001 2002 2004 1 120.000 292.880
2001 2002 2049 1 112.700000 488.273000
2003 2002 2004 1 117.000 292.880
2003 2002 2049 1 110.700000 313.800000
2004 2002 2049 1 110.700000 313.800000
2001 2005 2006 1 125.300 669.440
2001 2005 2007 1 111.400 677.808
2006 2005 2007 1 123.400 694.544
2005 2007 2008 1 116.900 694.544
2007 2008 2009 1 109.500 292.880
2007 2008 2010 1 109.500 292.880
2007 2008 2011 1 109.500 418.400
2009 2008 2010 1 107.800 276.144
2009 2008 2011 1 110.700 313.800
2010 2008 2011 1 110.700 313.800
2008 2011 2012 1 110.700 313.800
2008 2011 2013 1 110.700 313.800
2008 2011 2014 1 112.700 488.273
2012 2011 2013 1 107.800 276.144
2012 2011 2014 1 110.700 313.800
2013 2011 2014 1 110.700 313.800
2011 2014 2015 1 110.700 313.800
2011 2014 2016 1 110.700 313.800
2011 2014 2017 1 112.700 488.273
2015 2014 2016 1 107.800 276.144
2015 2014 2017 1 110.700 313.800
2016 2014 2017 1 110.700 313.800
2014 2017 2018 1 110.700 313.800
2014 2017 2019 1 110.700 313.800
2014 2017 2020 1 112.700 488.273
2018 2017 2019 1 107.800 276.144
2018 2017 2020 1 110.700 313.800
2019 2017 2020 1 110.700 313.800
2017 2020 2021 1 110.700 313.800
2017 2020 2022 1 110.700 313.800
2017 2020 2023 1 112.700 488.273
2021 2020 2022 1 107.800 276.144
2021 2020 2023 1 110.700 313.800
2022 2020 2023 1 110.700 313.800
2020 2023 2024 1 110.700 313.800
2020 2023 2025 1 110.700 313.800
2020 2023 2026 1 112.700 488.273
2024 2023 2025 1 107.800 276.144
2024 2023 2026 1 110.700 313.800
2025 2023 2026 1 110.700 313.800
2023 2026 2027 1 110.700 313.800
2023 2026 2028 1 110.700 313.800
2023 2026 2029 1 112.700 488.273
2027 2026 2028 1 107.800 276.144
2027 2026 2029 1 110.700 313.800
2028 2026 2029 1 110.700 313.800
2026 2029 2030 1 110.700 313.800
2026 2029 2031 1 110.700 313.800
2026 2029 2032 1 112.700 488.273
2030 2029 2031 1 107.800 276.144
2030 2029 2032 1 110.700 313.800
2031 2029 2032 1 110.700 313.800
2029 2032 2033 1 110.700 313.800
2029 2032 2034 1 110.700 313.800
2029 2032 2035 1 112.700 488.273
2033 2032 2034 1 107.800 276.144
2033 2032 2035 1 110.700 313.800
2034 2032 2035 1 110.700 313.800
2032 2035 2036 1 110.700 313.800
2032 2035 2037 1 110.700 313.800
2032 2035 2038 1 112.700 488.273
2036 2035 2037 1 107.800 276.144
2036 2035 2038 1 110.700 313.800
2037 2035 2038 1 110.700 313.800
2035 2038 2039 1 110.700 313.800
2035 2038 2040 1 110.700 313.800
2035 2038 2041 1 112.700 488.273
2039 2038 2040 1 107.800 276.144
2039 2038 2041 1 110.700 313.800
2040 2038 2041 1 110.700 313.800
2038 2041 2042 1 110.700 313.800
2038 2041 2043 1 110.700 313.800
2038 2041 2044 1 110.700 313.800
2042 2041 2043 1 107.800 276.144
2042 2041 2044 1 107.800 276.144
2043 2041 2044 1 107.800 276.144
2045 2046 2047 1 107.800 276.144
2045 2046 2048 1 107.800 276.144
2045 2046 2049 1 109.500 292.880
2047 2046 2048 1 107.800 276.144
2047 2046 2049 1 109.500 292.880
2048 2046 2049 1 109.500 292.880
2002 2049 2046 1 112.700000 488.273000
2002 2049 2050 1 112.700000 488.273000
2002 2049 2053 1 112.700000 488.273000
2046 2049 2050 1 124.000 585.760
2046 2049 2053 1 119.700 585.760
2050 2049 2053 1 120.700 711.280
2049 2050 2051 1 120.000 292.880
2049 2050 2052 1 120.000 292.880
2049 2050 2115 1 112.700000 488.273000
2051 2050 2052 1 117.000 292.880
2051 2050 2115 1 110.700000 313.800000
2052 2050 2115 1 110.700000 313.800000
2049 2053 2054 1 125.300 669.440
2049 2053 2055 1 111.400 677.808
2054 2053 2055 1 123.400 694.544
2053 2055 2056 1 116.900 694.544
2055 2056 2057 1 109.500 292.880
2055 2056 2058 1 109.500 292.880
2055 2056 2059 1 109.500 418.400
2057 2056 2058 1 107.800 276.144
2057 2056 2059 1 110.700 313.800
2058 2056 2059 1 110.700 313.800
2056 2059 2060 1 110.700 313.800
2056 2059 2061 1 110.700 313.800
2056 2059 2062 1 112.700 488.273
2060 2059 2061 1 107.800 276.144
2060 2059 2062 1 110.700 313.800
2061 2059 2062 1 110.700 313.800
2059 2062 2063 1 110.700 313.800
2059 2062 2064 1 110.700 313.800
2059 2062 2065 1 112.700 488.273
2063 2062 2064 1 107.800 276.144
2063 2062 2065 1 110.700 313.800
2064 2062 2065 1 110.700 313.800
2062 2065 2066 1 110.700 313.800
2062 2065 2067 1 110.700 313.800
2062 2065 2068 1 112.700 488.273
2066 2065 2067 1 107.800 276.144
2066 2065 2068 1 110.700 313.800
2067 2065 2068 1 110.700 313.800
2065 2068 2069 1 110.700 313.800
2065 2068 2070 1 110.700 313.800
2065 2068 2071 1 112.700 488.273
2069 2068 2070 1 107.800 276.144
2069 2068 2071 1 110.700 313.800
2070 2068 2071 1 110.700 313.800
2068 2071 2072 1 110.700 313.800
2068 2071 2073 1 110.700 313.800
2068 2071 2074 1 112.700 488.273
2072 2071 2073 1 107.800 276.144
2072 2071 2074 1 110.700 313.800
2073 2071 2074 1 110.700 313.800
2071 2074 2075 1 110.700 313.800
2071 2074 2076 1 110.700 313.800
2071 2074 2077 1 112.700 488.273
2075 2074 2076 1 107.800 276.144
2075 2074 2077 1 110.700 313.800
2076 2074 2077 1 110.700 313.800
2074 2077 2078 1 110.700 313.800
2074 2077 2079 1 110.700 313.800
2074 2077 2080 1 112.700 488.273
2078 2077 2079 1 107.800 276.144
2078 2077 2080 1 110.700 313.800
2079 2077 2080 1 110.700 313.800
2077 2080 2081 1 110.700 313.800
2077 2080 2082 1 110.700 313.800
2077 2080 2083 1 112.700 488.273
2081 2080 2082 1 107.800 276.144
2081 2080 2083 1 110.700 313.800
2082 2080 2083 1 110.700 313.800
2080 2083 2084 1 110.700 313.800
2080 2083 2085 1 110.700 313.800
2080 2083 2086 1 112.700 488.273
2084 2083 2085 1 107.800 276.144
2084 2083 2086 1 110.700 313.800
2085 2083 2086 1 110.700 313.800
2083 2086 2087 1 110.700 313.800
2083 2086 2088 1 110.700 313.800
2083 2086 2089 1 112.700 488.273
2087 2086 2088 1 107.800 276.144
2087 2086 2089 1 110.700 313.800
2088 2086 2089 1 110.700 313.800
2086 2089 2090 1 110.700 313.800
2086 2089 2091 1 110.700 313.800
2086 2089 2092 1 112.700 488.273
2090 2089 2091 1 107.800 276.144
2090 2089 2092 1 110.700 313.800
2091 2089 2092 1 110.700 313.800
2089 2092 2093 1 110.700 313.800
2089 2092 2094 1 110.700 313.800
2089 2092 2095 1 112.700 488.273
2093 2092 2094 1 107.800 276.144
2093 2092 2095 1 110.700 313.800
2094 2092 2095 1 110.700 313.800
2092 2095 2096 1 110.700 313.800
2092 2095 2097 1 110.700 313.800
2092 2095 2098 1 112.700 488.273
2096 2095 2097 1 107.800 276.144
2096 2095 2098 1 110.700 313.800
2097 2095 2098 1 110.700 313.800
2095 2098 2099 1 110.700 313.800
2095 2098 2100 1 110.700 313.800
2095 2098 2101 1 112.700 488.273
2099 2098 2100 1 107.800 276.144
2099 2098 2101 1 110.700 313.800
2100 2098 2101 1 110.700 313.800
2098 2101 2102 1 110.700 313.800
2098 2101 2103 1 110.700 313.800
2098 2101 2104 1 112.700 488.273
2102 2101 2103 1 107.800 276.144
2102 2101 2104 1 110.700 313.800
2103 2101 2104 1 110.700 313.800
2101 2104 2105 1 110.700 313.800
2101 2104 2106 1 110.700 313.800
2101 2104 2107 1 112.700 488.273
2105 2104 2106 1 107.800 276.144
2105 2104 2107 1 110.700 313.800
2106 2104 2107 1 110.700 313.800
2104 2107 2108 1 110.700 313.800
2104 2107 2109 1 110.700 313.800
2104 2107 2110 1 110.700 313.800
2108 2107 2109 1 107.800 276.144
2108 2107 2110 1 107.800 276.144
2109 2107 2110 1 107.800 276.144
2111 2112 2113 1 107.800 276.144
2111 2112 2114 1 107.800 276.144
2111 2112 2115 1 109.500 292.880
2113 2112 2114 1 107.800 276.144
2113 2112 2115 1 109.500 292.880
2114 2112 2115 1 109.500 292.880
2050 2115 2112 1 112.700000 488.273000
2050 2115 2116 1 112.700000 488.273000
2050 2115 2119 1 112.700000 488.273000
2112 2115 2116 1 124.000 585.760
2112 2115 2119 1 119.700 585.760
2116 2115 2119 1 120.700 711.280
2115 2116 2117 1 120.000 292.880
2115 2116 2118 1 120.000 292.880
2115 2116 2181 1 112.700000 488.273000
2117 2116 2118 1 117.000 292.880
2117 2116 2181 1 110.700000 313.800000
2118 2116 2181 1 110.700000 313.800000
2115 2119 2120 1 125.300 669.440
2115 2119 2121 1 111.400 677.808
2120 2119 2121 1 123.400 694.544
2119 2121 2122 1 116.900 694.544
2121 2122 2123 1 109.500 292.880
2121 2122 2124 1 109.500 292.880
2121 2122 2125 1 109.500 418.400
2123 2122 2124 1 107.800 276.144
2123 2122 2125 1 110.700 313.800
2124 2122 2125 1 110.700 313.800
2122 2125 2126 1 110.700 313.800
2122 2125 2127 1 110.700 313.800
2122 2125 2128 1 112.700 488.273
2126 2125 2127 1 107.800 276.144
2126 2125 2128 1 110.700 313.800
2127 2125 2128 1 110.700 313.800
2125 2128 2129 1 110.700 313.800
2125 2128 2130 1 110.700 313.800
2125 2128 2131 1 112.700 488.273
2129 2128 2130 1 107.800 276.144
2129 2128 2131 1 110.700 313.800
2130 2128 2131 1 110.700 313.800
2128 2131 2132 1 110.700 313.800
2128 2131 2133 1 110.700 313.800
2128 2131 2134 1 112.700 488.273
2132 2131 2133 1 107.800 276.144
2132 2131 2134 1 110.700 313.800
2133 2131 2134 1 110.700 313.800
2131 2134 2135 1 110.700 313.800
2131 2134 2136 1 110.700 313.800
2131 2134 2137 1 112.700 488.273
2135 2134 2136 1 107.800 276.144
2135 2134 2137 1 110.700 313.800
2136 2134 2137 1 110.700 313.800
2134 2137 2138 1 110.700 313.800
2134 2137 2139 1 110.700 313.800
2134 2137 2140 1 112.700 488.273
2138 2137 2139 1 107.800 276.144
2138 2137 2140 1 110.700 313.800
2139 2137 2140 1 110.700 313.800
2137 2140 2141 1 110.700 313.800
2137 2140 2142 1 110.700 313.800
2137 2140 2143 1 112.700 488.273
2141 2140 2142 1 107.800 276.144
2141 2140 2143 1 110.700 313.800
2142 2140 2143 1 110.700 313.800
2140 2143 2144 1 110.700 313.800
2140 2143 2145 1 110.700 313.800
2140 2143 2146 1 112.700 488.273
2144 2143 2145 1 107.800 276.144
2144 2143 2146 1 110.700 313.800
2145 2143 2146 1 110.700 313.800
2143 2146 2147 1 110.700 313.800
2143 2146 2148 1 110.700 313.800
2143 2146 2149 1 112.700 488.273
2147 2146 2148 1 107.800 276.144
2147 2146 2149 1 110.700 313.800
2148 2146 2149 1 110.700 313.800
2146 2149 2150 1 110.700 313.800
2146 2149 2151 1 110.700 313.800
2146 2149 2152 1 112.700 488.273
2150 2149 2151 1 107.800 276.144
2150 2149 2152 1 110.700 313.800
2151 2149 2152 1 110.700 313.800
2149 2152 2153 1 110.700 313.800
2149 2152 2154 1 110.700 313.800
2149 2152 2155 1 112.700 488.273
2153 2152 2154 1 107.800 276.144
2153 2152 2155 1 110.700 313.800
2154 2152 2155 1 110.700 313.800
2152 2155 2156 1 110.700 313.800
2152 2155 2157 1 110.700 313.800
2152 2155 2158 1 112.700 488.273
2156 2155 2157 1 107.800 276.144
2156 2155 2158 1 110.700 313.800
2157 2155 2158 1 110.700 313.800
2155 2158 2159 1 110.700 313.800
2155 2158 2160 1 110.700 313.800
2155 2158 2161 1 112.700 488.273
2159 2158 2160 1 107.800 276.144
2159 2158 2161 1 110.700 313.800
2160 2158 2161 1 110.700 313.800
2158 2161 2162 1 110.700 313.800
2158 2161 2163 1 110.700 313.800
2158 2161 2164 1 112.700 488.273
2162 2161 2163 1 107.800 276.144
2162 2161 2164 1 110.700 313.800
2163 2161 2164 1 110.700 313.800
2161 2164 2165 1 110.700 313.800
2161 2164 2166 1 110.700 313.800
2161 2164 2167 1 112.700 488.273
2165 2164 2166 1 107.800 276.144
2165 2164 2167 1 110.700 313.800
2166 2164 2167 1 110.700 313.800
2164 2167 2168 1 110.700 313.800
2164 2167 2169 1 110.700 313.800
2164 2167 2170 1 112.700 488.273
2168 2167 2169 1 107.800 276.144
2168 2167 2170 1 110.700 313.800
2169 2167 2170 1 110.700 313.800
2167 2170 2171 1 110.700 313.800
2167 2170 2172 1 110.700 313.800
2167 2170 2173 1 112.700 488.273
2171 2170 2172 1 107.800 276.144
2171 2170 2173 1 110.700 313.800
2172 2170 2173 1 110.700 313.800
2170 2173 2174 1 110.700 313.800
2170 2173 2175 1 110.700 313.800
2170 2173 2176 1 110.700 313.800
2174 2173 2175 1 107.800 276.144
2174 2173 2176 1 107.800 276.144
2175 2173 2176 1 107.800 276.144
2177 2178 2179 1 107.800 276.144
2177 2178 2180 1 107.800 276.144
2177 2178 2181 1 109.500 292.880
2179 2178 2180 1 107.800 276.144
2179 2178 2181 1 109.500 292.880
2180 2178 2181 1 109.500 292.880
2116 2181 2178 1 112.700000 488.273000
2116 2181 2182 1 112.700000 488.273000
2116 2181 2185 1 112.700000 488.273000
2178 2181 2182 1 124.000 585.760
2178 2181 2185 1 119.700 585.760
2182 2181 2185 1 120.700 711.280
2181 2182 2183 1 120.000 292.880
2181 2182 2184 1 120.000 292.880
2181 2182 2217 1 112.700000 488.273000
2183 2182 2184 1 117.000 292.880
2183 2182 2217 1 110.700000 313.800000
2184 2182 2217 1 110.700000 313.800000
2181 2185 2186 1 125.300 669.440
2181 2185 2187 1 111.400 677.808
2186 2185 2187 1 123.400 694.544
2185 2187 2188 1 116.900 694.544
2187 2188 2189 1 109.500 292.880
2187 2188 2190 1 109.500 292.880
2187 2188 2191 1 109.500 418.400
2189 2188 2190 1 107.800 276.144
2189 2188 2191 1 110.700 313.800
2190 2188 2191 1 110.700 313.800
2188 2191 2192 1 110.700 313.800
2188 2191 2193 1 112.700 488.273
2188 2191 2200 1 112.700 488.273
2192 2191 2193 1 110.700 313.800
2192 2191 2200 1 110.700 313.800
2193 2191 2200 1 112.700 488.273
2191 2193 2194 1 110.700 313.800
2191 2193 2195 1 110.700 313.800
2191 2193 2196 1 112.700 488.273
2194 2193 2195 1 107.800 276.144
2194 2193 2196 1 110.700 313.800
2195 2193 2196 1 110.700 313.800
2193 2196 2197 1 110.700 313.800
2193 2196 2198 1 110.700 313.800
2193 2196 2199 1 110.700 313.800
2197 2196 2198 1 107.800 276.144
2197 2196 2199 1 107.800 276.144
2198 2196 2199 1 107.800 276.144
2191 2200 2201 1 110.700 313.800
2191 2200 2202 1 110.700 313.800
2191 2200 2203 1 112.700 488.273
2201 2200 2202 1 107.800 276.144
2201 2200 2203 1 110.700 313.800
2202 2200 2203 1 110.700 313.800
2200 2203 2204 1 110.700 313.800
2200 2203 2205 1 110.700 313.800
2200 2203 2206 1 112.700 488.273
2204 2203 2205 1 107.800 276.144
2204 2203 2206 1 110.700 313.800
2205 2203 2206 1 110.700 313.800
2203 2206 2207 1 110.700 313.800
2203 2206 2208 1 110.700 313.800
2203 2206 2209 1 112.700 488.273
2207 2206 2208 1 107.800 276.144
2207 2206 2209 1 110.700 313.800
2208 2206 2209 1 110.700 313.800
2206 2209 2210 1 110.700 313.800
2206 2209 2211 1 110.700 313.800
2206 2209 2212 1 110.700 313.800
2210 2209 2211 1 107.800 276.144
2210 2209 2212 1 107.800 276.144
2211 2209 2212 1 107.800 276.144
2213 2214 2215 1 107.800 276.144
2213 2214 2216 1 107.800 276.144
2213 2214 2217 1 109.500 292.880
2215 2214 2216 1 107.800 276.144
2215 2214 2217 1 109.500 292.880
2216 2214 2217 1 109.500 292.880
2182 2217 2214 1 112.700000 488.273000
2182 2217 2218 1 112.700000 488.273000
2182 2217 2221 1 112.700000 488.273000
2214 2217 2218 1 124.000 585.760
2214 2217 2221 1 119.700 585.760
2218 2217 2221 1 120.700 711.280
2217 2218 2219 1 120.000 292.880
2217 2218 2220 1 120.000 292.880
2217 2218 2253 1 112.700000 488.273000
2219 2218 2220 1 117.000 292.880
2219 2218 2253 1 110.700000 313.800000
2220 2218 2253 1 110.700000 313.800000
2217 2221 2222 1 125.300 669.440
2217 2221 2223 1 111.400 677.808
2222 2221 2223 1 123.400 694.544
2221 2223 2224 1 116.900 694.544
2223 2224 2225 1 109.500 292.880
2223 2224 2226 1 109.500 292.880
2223 2224 2227 1 109.500 418.400
2225 2224 2226 1 107.800 276.144
2225 2224 2227 1 110.700 313.800
2226 2224 2227 1 110.700 313.800
2224 2227 2228 1 110.700 313.800
2224 2227 2229 1 112.700 488.273
2224 2227 2236 1 112.700 488.273
2228 2227 2229 1 110.700 313.800
2228 2227 2236 1 110.700 313.800
2229 2227 2236 1 112.700 488.273
2227 2229 2230 1 110.700 313.800
2227 2229 2231 1 110.700 313.800
2227 2229 2232 1 112.700 488.273
2230 2229 2231 1 107.800 276.144
2230 2229 2232 1 110.700 313.800
2231 2229 2232 1 110.700 313.800
2229 2232 2233 1 110.700 313.800
2229 2232 2234 1 110.700 313.800
2229 2232 2235 1 110.700 313.800
2233 2232 2234 1 107.800 276.144
2233 2232 2235 1 107.800 276.144
2234 2232 2235 1 107.800 276.144
2227 2236 2237 1 110.700 313.800
2227 2236 2238 1 110.700 313.800
2227 2236 2239 1 112.700 488.273
2237 2236 2238 1 107.800 276.144
2237 2236 2239 1 110.700 313.800
2238 2236 2239 1 110.700 313.800
2236 2239 2240 1 110.700 313.800
2236 2239 2241 1 110.700 313.800
2236 2239 2242 1 112.700 488.273
2240 2239 2241 1 107.800 276.144
2240 2239 2242 1 110.700 313.800
2241 2239 2242 1 110.700 313.800
2239 2242 2243 1 110.700 313.800
2239 2242 2244 1 110.700 313.800
2239 2242 2245 1 112.700 488.273
2243 2242 2244 1 107.800 276.144
2243 2242 2245 1 110.700 313.800
2244 2242 2245 1 110.700 313.800
2242 2245 2246 1 110.700 313.800
2242 2245 2247 1 110.700 313.800
2242 2245 2248 1 110.700 313.800
2246 2245 2247 1 107.800 276.144
2246 2245 2248 1 107.800 276.144
2247 2245 2248 1 107.800 276.144
2249 2250 2251 1 107.800 276.144
2249 2250 2252 1 107.800 276.144
2249 2250 2253 1 109.500 292.880
2251 2250 2252 1 107.800 276.144
2251 2250 2253 1 109.500 292.880
2252 2250 2253 1 109.500 292.880
2218 2253 2250 1 112.700000 488.273000
2218 2253 2254 1 112.700000 488.273000
2218 2253 2257 1 112.700000 488.273000
2250 2253 2254 1 124.000 585.760
2250 2253 2257 1 119.700 585.760
2254 2253 2257 1 120.700 711.280
2253 2254 2255 1 120.000 292.880
2253 2254 2256 1 120.000 292.880
2253 2254 2289 1 112.700000 488.273000
2255 2254 2256 1 117.000 292.880
2255 2254 2289 1 110.700000 313.800000
2256 2254 2289 1 110.700000 313.800000
2253 2257 2258 1 125.300 669.440
2253 2257 2259 1 111.400 677.808
2258 2257 2259 1 123.400 694.544
2257 2259 2260 1 116.900 694.544
2259 2260 2261 1 109.500 292.880
2259 2260 2262 1 109.500 292.880
2259 2260 2263 1 109.500 418.400
2261 2260 2262 1 107.800 276.144
2261 2260 2263 1 110.700 313.800
2262 2260 2263 1 110.700 313.800
2260 2263 2264 1 110.700 313.800
2260 2263 2265 1 112.700 488.273
2260 2263 2272 1 112.700 488.273
2264 2263 2265 1 110.700 313.800
2264 2263 2272 1 110.700 313.800
2265 2263 2272 1 112.700 488.273
2263 2265 2266 1 110.700 313.800
2263 2265 2267 1 110.700 313.800
2263 2265 2268 1 112.700 488.273
2266 2265 2267 1 107.800 276.144
2266 2265 2268 1 110.700 313.800
2267 2265 2268 1 110.700 313.800
2265 2268 2269 1 110.700 313.800
2265 2268 2270 1 110.700 313.800
2265 2268 2271 1 110.700 313.800
2269 2268 2270 1 107.800 276.144
2269 2268 2271 1 107.800 276.144
2270 2268 2271 1 107.800 276.144
2263 2272 2273 1 110.700 313.800
2263 2272 2274 1 110.700 313.800
2263 2272 2275 1 112.700 488.273
2273 2272 2274 1 107.800 276.144
2273 2272 2275 1 110.700 313.800
2274 2272 2275 1 110.700 313.800
2272 2275 2276 1 110.700 313.800
2272 2275 2277 1 110.700 313.800
2272 2275 2278 1 112.700 488.273
2276 2275 2277 1 107.800 276.144
2276 2275 2278 1 110.700 313.800
2277 2275 2278 1 110.700 313.800
2275 2278 2279 1 110.700 313.800
2275 2278 2280 1 110.700 313.800
2275 2278 2281 1 112.700 488.273
2279 2278 2280 1 107.800 276.144
2279 2278 2281 1 110.700 313.800
2280 2278 2281 1 110.700 313.800
2278 2281 2282 1 110.700 313.800
2278 2281 2283 1 110.700 313.800
2278 2281 2284 1 110.700 313.800
2282 2281 2283 1 107.800 276.144
2282 2281 2284 1 107.800 276.144
2283 2281 2284 1 107.800 276.144
2285 2286 2287 1 107.800 276.144
2285 2286 2288 1 107.800 276.144
2285 2286 2289 1 109.500 292.880
2287 2286 2288 1 107.800 276.144
2287 2286 2289 1 109.500 292.880
2288 2286 2289 1 109.500 292.880
2254 2289 2286 1 112.700000 488.273000
2254 2289 2290 1 112.700000 488.273000
2254 2289 2293 1 112.700000 488.273000
2286 2289 2290 1 124.000 585.760
2286 2289 2293 1 119.700 585.760
2290 2289 2293 1 120.700 711.280
2289 2290 2291 1 120.000 292.880
2289 2290 2292 1 120.000 292.880
2289 2290 2337 1 112.700000 488.273000
2291 2290 2292 1 117.000 292.880
2291 2290 2337 1 110.700000 313.800000
2292 2290 2337 1 110.700000 313.800000
2289 2293 2294 1 125.300 669.440
2289 2293 2295 1 111.400 677.808
2294 2293 2295 1 123.400 694.544
2293 2295 2296 1 116.900 694.544
2295 2296 2297 1 109.500 292.880
2295 2296 2298 1 109.500 292.880
2295 2296 2299 1 109.500 418.400
2297 2296 2298 1 107.800 276.144
2297 2296 2299 1 110.700 313.800
2298 2296 2299 1 110.700 313.800
2296 2299 2300 1 110.700 313.800
2296 2299 2301 1 110.700 313.800
2296 2299 2302 1 112.700 488.273
2300 2299 2301 1 107.800 276.144
2300 2299 2302 1 110.700 313.800
2301 2299 2302 1 110.700 313.800
2299 2302 2303 1 110.700 313.800
2299 2302 2304 1 110.700 313.800
2299 2302 2305 1 112.700 488.273
2303 2302 2304 1 107.800 276.144
2303 2302 2305 1 110.700 313.800
2304 2302 2305 1 110.700 313.800
2302 2305 2306 1 110.700 313.800
2302 2305 2307 1 110.700 313.800
2302 2305 2308 1 112.700 488.273
2306 2305 2307 1 107.800 276.144
2306 2305 2308 1 110.700 313.800
2307 2305 2308 1 110.700 313.800
2305 2308 2309 1 110.700 313.800
2305 2308 2310 1 110.700 313.800
2305 2308 2311 1 112.700 488.273
2309 2308 2310 1 107.800 276.144
2309 2308 2311 1 110.700 313.800
2310 2308 2311 1 110.700 313.800
2308 2311 2312 1 110.700 313.800
2308 2311 2313 1 110.700 313.800
2308 2311 2314 1 112.700 488.273
2312 2311 2313 1 107.800 276.144
2312 2311 2314 1 110.700 313.800
2313 2311 2314 1 110.700 313.800
2311 2314 2315 1 110.700 313.800
2311 2314 2316 1 110.700 313.800
2311 2314 2317 1 112.700 488.273
2315 2314 2316 1 107.800 276.144
2315 2314 2317 1 110.700 313.800
2316 2314 2317 1 110.700 313.800
2314 2317 2318 1 110.700 313.800
2314 2317 2319 1 110.700 313.800
2314 2317 2320 1 112.700 488.273
2318 2317 2319 1 107.800 276.144
2318 2317 2320 1 110.700 313.800
2319 2317 2320 1 110.700 313.800
2317 2320 2321 1 110.700 313.800
2317 2320 2322 1 110.700 313.800
2317 2320 2323 1 112.700 488.273
2321 2320 2322 1 107.800 276.144
2321 2320 2323 1 110.700 313.800
2322 2320 2323 1 110.700 313.800
2320 2323 2324 1 110.700 313.800
2320 2323 2325 1 110.700 313.800
2320 2323 2326 1 112.700 488.273
2324 2323 2325 1 107.800 276.144
2324 2323 2326 1 110.700 313.800
2325 2323 2326 1 110.700 313.800
2323 2326 2327 1 110.700 313.800
2323 2326 2328 1 110.700 313.800
2323 2326 2329 1 112.700 488.273
2327 2326 2328 1 107.800 276.144
2327 2326 2329 1 110.700 313.800
2328 2326 2329 1 110.700 313.800
2326 2329 2330 1 110.700 313.800
2326 2329 2331 1 110.700 313.800
2326 2329 2332 1 110.700 313.800
2330 2329 2331 1 107.800 276.144
2330 2329 2332 1 107.800 276.144
2331 2329 2332 1 107.800 276.144
2333 2334 2335 1 107.800 276.144
2333 2334 2336 1 107.800 276.144
2333 2334 2337 1 109.500 292.880
2335 2334 2336 1 107.800 276.144
2335 2334 2337 1 109.500 292.880
2336 2334 2337 1 109.500 292.880
2290 2337 2334 1 112.700000 488.273000
2290 2337 2338 1 112.700000 488.273000
2290 2337 2341 1 112.700000 488.273000
2334 2337 2338 1 124.000 585.760
2334 2337 2341 1 119.700 585.760
2338 2337 2341 1 120.700 711.280
2337 2338 2339 1 120.000 292.880
2337 2338 2340 1 120.000 292.880
2337 2338 2373 1 112.700000 488.273000
2339 2338 2340 1 117.000 292.880
2339 2338 2373 1 110.700000 313.800000
2340 2338 2373 1 110.700000 313.800000
2337 2341 2342 1 125.300 669.440
2337 2341 2343 1 111.400 677.808
2342 2341 2343 1 123.400 694.544
2341 2343 2344 1 116.900 694.544
2343 2344 2345 1 109.500 292.880
2343 2344 2346 1 109.500 292.880
2343 2344 2347 1 109.500 418.400
2345 2344 2346 1 107.800 276.144
2345 2344 2347 1 110.700 313.800
2346 2344 2347 1 110.700 313.800
2344 2347 2348 1 110.700 313.800
2344 2347 2349 1 112.700 488.273
2344 2347 2356 1 112.700 488.273
2348 2347 2349 1 110.700 313.800
2348 2347 2356 1 110.700 313.800
2349 2347 2356 1 112.700 488.273
2347 2349 2350 1 110.700 313.800
2347 2349 2351 1 110.700 313.800
2347 2349 2352 1 112.700 488.273
2350 2349 2351 1 107.800 276.144
2350 2349 2352 1 110.700 313.800
2351 2349 2352 1 110.700 313.800
2349 2352 2353 1 110.700 313.800
2349 2352 2354 1 110.700 313.800
2349 2352 2355 1 110.700 313.800
2353 2352 2354 1 107.800 276.144
2353 2352 2355 1 107.800 276.144
2354 2352 2355 1 107.800 276.144
2347 2356 2357 1 110.700 313.800
2347 2356 2358 1 110.700 313.800
2347 2356 2359 1 112.700 488.273
2357 2356 2358 1 107.800 276.144
2357 2356 2359 1 110.700 313.800
2358 2356 2359 1 110.700 313.800
2356 2359 2360 1 110.700 313.800
2356 2359 2361 1 110.700 313.800
2356 2359 2362 1 112.700 488.273
2360 2359 2361 1 107.800 276.144
2360 2359 2362 1 110.700 313.800
2361 2359 2362 1 110.700 313.800
2359 2362 2363 1 110.700 313.800
2359 2362 2364 1 110.700 313.800
2359 2362 2365 1 112.700 488.273
2363 2362 2364 1 107.800 276.144
2363 2362 2365 1 110.700 313.800
2364 2362 2365 1 110.700 313.800
2362 2365 2366 1 110.700 313.800
2362 2365 2367 1 110.700 313.800
2362 2365 2368 1 110.700 313.800
2366 2365 2367 1 107.800 276.144
2366 2365 2368 1 107.800 276.144
2367 2365 2368 1 107.800 276.144
2369 2370 2371 1 107.800 276.144
2369 2370 2372 1 107.800 276.144
2369 2370 2373 1 109.500 292.880
2371 2370 2372 1 107.800 276.144
2371 2370 2373 1 109.500 292.880
2372 2370 2373 1 109.500 292.880
2338 2373 2370 1 112.700000 488.273000
2338 2373 2374 1 112.700000 488.273000
2338 2373 2377 1 112.700000 488.273000
2370 2373 2374 1 124.000 585.760
2370 2373 2377 1 119.700 585.760
2374 2373 2377 1 120.700 711.280
2373 2374 2375 1 120.000 292.880
2373 2374 2376 1 120.000 292.880
2373 2374 2409 1 112.700000 488.273000
2375 2374 2376 1 117.000 292.880
2375 2374 2409 1 110.700000 313.800000
2376 2374 2409 1 110.700000 313.800000
2373 2377 2378 1 125.300 669.440
2373 2377 2379 1 111.400 677.808
2378 2377 2379 1 123.400 694.544
2377 2379 2380 1 116.900 694.544
2379 2380 2381 1 109.500 292.880
2379 2380 2382 1 109.500 292.880
2379 2380 2383 1 109.500 418.400
2381 2380 2382 1 107.800 276.144
2381 2380 2383 1 110.700 313.800
2382 2380 2383 1 110.700 313.800
2380 2383 2384 1 110.700 313.800
2380 2383 2385 1 112.700 488.273
2380 2383 2392 1 112.700 488.273
2384 2383 2385 1 110.700 313.800
2384 2383 2392 1 110.700 313.800
2385 2383 2392 1 112.700 488.273
2383 2385 2386 1 110.700 313.800
2383 2385 2387 1 110.700 313.800
2383 2385 2388 1 112.700 488.273
2386 2385 2387 1 107.800 276.144
2386 2385 2388 1 110.700 313.800
2387 2385 2388 1 110.700 313.800
2385 2388 2389 1 110.700 313.800
2385 2388 2390 1 110.700 313.800
2385 2388 2391 1 110.700 313.800
2389 2388 2390 1 107.800 276.144
2389 2388 2391 1 107.800 276.144
2390 2388 2391 1 107.800 276.144
2383 2392 2393 1 110.700 313.800
2383 2392 2394 1 110.700 313.800
2383 2392 2395 1 112.700 488.273
2393 2392 2394 1 107.800 276.144
2393 2392 2395 1 110.700 313.800
2394 2392 2395 1 110.700 313.800
2392 2395 2396 1 110.700 313.800
2392 2395 2397 1 110.700 313.800
2392 2395 2398 1 112.700 488.273
2396 2395 2397 1 107.800 276.144
2396 2395 2398 1 110.700 313.800
2397 2395 2398 1 110.700 313.800
2395 2398 2399 1 110.700 313.800
2395 2398 2400 1 110.700 313.800
2395 2398 2401 1 112.700 488.273
2399 2398 2400 1 107.800 276.144
2399 2398 2401 1 110.700 313.800
2400 2398 2401 1 110.700 313.800
2398 2401 2402 1 110.700 313.800
2398 2401 2403 1 110.700 313.800
2398 2401 2404 1 110.700 313.800
2402 2401 2403 1 107.800 276.144
2402 2401 2404 1 107.800 276.144
2403 2401 2404 1 107.800 276.144
2405 2406 2407 1 107.800 276.144
2405 2406 2408 1 107.800 276.144
2405 2406 2409 1 109.500 292.880
2407 2406 2408 1 107.800 276.144
2407 2406 2409 1 109.500 292.880
2408 2406 2409 1 109.500 292.880
2374 2409 2406 1 112.700000 488.273000
2374 2409 2410 1 112.700000 488.273000
2374 2409 2413 1 112.700000 488.273000
2406 2409 2410 1 124.000 585.760
2406 2409 2413 1 119.700 585.760
2410 2409 2413 1 120.700 711.280
2409 2410 2411 1 120.000 292.880
2409 2410 2412 1 120.000 292.880
2409 2410 2475 1 112.700000 488.273000
2411 2410 2412 1 117.000 292.880
2411 2410 2475 1 110.700000 313.800000
2412 2410 2475 1 110.700000 313.800000
2409 2413 2414 1 125.300 669.440
2409 2413 2415 1 111.400 677.808
2414 2413 2415 1 123.400 694.544
2413 2415 2416 1 116.900 694.544
2415 2416 2417 1 109.500 292.880
2415 2416 2418 1 109.500 292.880
2415 2416 2419 1 109.500 418.400
2417 2416 2418 1 107.800 276.144
2417 2416 2419 1 110.700 313.800
2418 2416 2419 1 110.700 313.800
2416 2419 2420 1 110.700 313.800
2416 2419 2421 1 110.700 313.800
2416 2419 2422 1 112.700 488.273
2420 2419 2421 1 107.800 276.144
2420 2419 2422 1 110.700 313.800
2421 2419 2422 1 110.700 313.800
2419 2422 2423 1 110.700 313.800
2419 2422 2424 1 110.700 313.800
2419 2422 2425 1 112.700 488.273
2423 2422 2424 1 107.800 276.144
2423 2422 2425 1 110.700 313.800
2424 2422 2425 1 110.700 313.800
2422 2425 2426 1 110.700 313.800
2422 2425 2427 1 110.700 313.800
2422 2425 2428 1 112.700 488.273
2426 2425 2427 1 107.800 276.144
2426 2425 2428 1 110.700 313.800
2427 2425 2428 1 110.700 313.800
2425 2428 2429 1 110.700 313.800
2425 2428 2430 1 110.700 313.800
2425 2428 2431 1 112.700 488.273
2429 2428 2430 1 107.800 276.144
2429 2428 2431 1 110.700 313.800
2430 2428 2431 1 110.700 313.800
2428 2431 2432 1 110.700 313.800
2428 2431 2433 1 110.700 313.800
2428 2431 2434 1 112.700 488.273
2432 2431 2433 1 107.800 276.144
2432 2431 2434 1 110.700 313.800
2433 2431 2434 1 110.700 313.800
2431 2434 2435 1 110.700 313.800
2431 2434 2436 1 110.700 313.800
2431 2434 2437 1 112.700 488.273
2435 2434 2436 1 107.800 276.144
2435 2434 2437 1 110.700 313.800
2436 2434 2437 1 110.700 313.800
2434 2437 2438 1 110.700 313.800
2434 2437 2439 1 110.700 313.800
2434 2437 2440 1 112.700 488.273
2438 2437 2439 1 107.800 276.144
2438 2437 2440 1 110.700 313.800
2439 2437 2440 1 110.700 313.800
2437 2440 2441 1 110.700 313.800
2437 2440 2442 1 110.700 313.800
2437 2440 2443 1 112.700 488.273
2441 2440 2442 1 107.800 276.144
2441 2440 2443 1 110.700 313.800
2442 2440 2443 1 110.700 313.800
2440 2443 2444 1 110.700 313.800
2440 2443 2445 1 110.700 313.800
2440 2443 2446 1 112.700 488.273
2444 2443 2445 1 107.800 276.144
2444 2443 2446 1 110.700 313.800
2445 2443 2446 1 110.700 313.800
2443 2446 2447 1 110.700 313.800
2443 2446 2448 1 110.700 313.800
2443 2446 2449 1 112.700 488.273
2447 2446 2448 1 107.800 276.144
2447 2446 2449 1 110.700 313.800
2448 2446 2449 1 110.700 313.800
2446 2449 2450 1 110.700 313.800
2446 2449 2451 1 110.700 313.800
2446 2449 2452 1 112.700 488.273
2450 2449 2451 1 107.800 276.144
2450 2449 2452 1 110.700 313.800
2451 2449 2452 1 110.700 313.800
2449 2452 2453 1 110.700 313.800
2449 2452 2454 1 110.700 313.800
2449 2452 2455 1 112.700 488.273
2453 2452 2454 1 107.800 276.144
2453 2452 2455 1 110.700 313.800
2454 2452 2455 1 110.700 313.800
2452 2455 2456 1 110.700 313.800
2452 2455 2457 1 110.700 313.800
2452 2455 2458 1 112.700 488.273
2456 2455 2457 1 107.800 276.144
2456 2455 2458 1 110.700 313.800
2457 2455 2458 1 110.700 313.800
2455 2458 2459 1 110.700 313.800
2455 2458 2460 1 110.700 313.800
2455 2458 2461 1 112.700 488.273
2459 2458 2460 1 107.800 276.144
2459 2458 2461 1 110.700 313.800
2460 2458 2461 1 110.700 313.800
2458 2461 2462 1 110.700 313.800
2458 2461 2463 1 110.700 313.800
2458 2461 2464 1 112.700 488.273
2462 2461 2463 1 107.800 276.144
2462 2461 2464 1 110.700 313.800
2463 2461 2464 1 110.700 313.800
2461 2464 2465 1 110.700 313.800
2461 2464 2466 1 110.700 313.800
2461 2464 2467 1 112.700 488.273
2465 2464 2466 1 107.800 276.144
2465 2464 2467 1 110.700 313.800
2466 2464 2467 1 110.700 313.800
2464 2467 2468 1 110.700 313.800
2464 2467 2469 1 110.700 313.800
2464 2467 2470 1 110.700 313.800
2468 2467 2469 1 107.800 276.144
2468 2467 2470 1 107.800 276.144
2469 2467 2470 1 107.800 276.144
2471 2472 2473 1 107.800 276.144
2471 2472 2474 1 107.800 276.144
2471 2472 2475 1 109.500 292.880
2473 2472 2474 1 107.800 276.144
2473 2472 2475 1 109.500 292.880
2474 2472 2475 1 109.500 292.880
2410 2475 2472 1 112.700000 488.273000
2410 2475 2476 1 112.700000 488.273000
2410 2475 2479 1 112.700000 488.273000
2472 2475 2476 1 124.000 585.760
2472 2475 2479 1 119.700 585.760
2476 2475 2479 1 120.700 711.280
2475 2476 2477 1 120.000 292.880
2475 2476 2478 1 120.000 292.880
2475 2476 2511 1 112.700000 488.273000
2477 2476 2478 1 117.000 292.880
2477 2476 2511 1 110.700000 313.800000
2478 2476 2511 1 110.700000 313.800000
2475 2479 2480 1 125.300 669.440
2475 2479 2481 1 111.400 677.808
2480 2479 2481 1 123.400 694.544
2479 2481 2482 1 116.900 694.544
2481 2482 2483 1 109.500 292.880
2481 2482 2484 1 109.500 292.880
2481 2482 2485 1 109.500 418.400
2483 2482 2484 1 107.800 276.144
2483 2482 2485 1 110.700 313.800
2484 2482 2485 1 110.700 313.800
2482 2485 2486 1 110.700 313.800
2482 2485 2487 1 112.700 488.273
2482 2485 2494 1 112.700 488.273
2486 2485 2487 1 110.700 313.800
2486 2485 2494 1 110.700 313.800
2487 2485 2494 1 112.700 488.273
2485 2487 2488 1 110.700 313.800
2485 2487 2489 1 110.700 313.800
2485 2487 2490 1 112.700 488.273
2488 2487 2489 1 107.800 276.144
2488 2487 2490 1 110.700 313.800
2489 2487 2490 1 110.700 313.800
2487 2490 2491 1 110.700 313.800
2487 2490 2492 1 110.700 313.800
2487 2490 2493 1 110.700 313.800
2491 2490 2492 1 107.800 276.144
2491 2490 2493 1 107.800 276.144
2492 2490 2493 1 107.800 276.144
2485 2494 2495 1 110.700 313.800
2485 2494 2496 1 110.700 313.800
2485 2494 2497 1 112.700 488.273
2495 2494 2496 1 107.800 276.144
2495 2494 2497 1 110.700 313.800
2496 2494 2497 1 110.700 313.800
2494 2497 2498 1 110.700 313.800
2494 2497 2499 1 110.700 313.800
2494 2497 2500 1 112.700 488.273
2498 2497 2499 1 107.800 276.144
2498 2497 2500 1 110.700 313.800
2499 2497 2500 1 110.700 313.800
2497 2500 2501 1 110.700 313.800
2497 2500 2502 1 110.700 313.800
2497 2500 2503 1 112.700 488.273
2501 2500 2502 1 107.800 276.144
2501 2500 2503 1 110.700 313.800
2502 2500 2503 1 110.700 313.800
2500 2503 2504 1 110.700 313.800
2500 2503 2505 1 110.700 313.800
2500 2503 2506 1 110.700 313.800
2504 2503 2505 1 107.800 276.144
2504 2503 2506 1 107.800 276.144
2505 2503 2506 1 107.800 276.144
2507 2508 2509 1 107.800 276.144
2507 2508 2510 1 107.800 276.144
2507 2508 2511 1 109.500 292.880
2509 2508 2510 1 107.800 276.144
2509 2508 2511 1 109.500 292.880
2510 2508 2511 1 109.500 292.880
2476 2511 2508 1 112.700000 488.273000
2476 2511 2512 1 112.700000 488.273000
2476 2511 2515 1 112.700000 488.273000
2508 2511 2512 1 124.000 585.760
2508 2511 2515 1 119.700 585.760
2512 2511 2515 1 120.700 711.280
2511 2512 2513 1 120.000 292.880
2511 2512 2514 1 120.000 292.880
2511 2512 2577 1 112.700000 488.273000
2513 2512 2514 1 117.000 292.880
2513 2512 2577 1 110.700000 313.800000
2514 2512 2577 1 110.700000 313.800000
2511 2515 2516 1 125.300 669.440
2511 2515 2517 1 111.400 677.808
2516 2515 2517 1 123.400 694.544
2515 2517 2518 1 116.900 694.544
2517 2518 2519 1 109.500 292.880
2517 2518 2520 1 109.500 292.880
2517 2518 2521 1 109.500 418.400
2519 2518 2520 1 107.800 276.144
2519 2518 2521 1 110.700 313.800
2520 2518 2521 1 110.700 313.800
2518 2521 2522 1 110.700 313.800
2518 2521 2523 1 110.700 313.800
2518 2521 2524 1 112.700 488.273
2522 2521 2523 1 107.800 276.144
2522 2521 2524 1 110.700 313.800
2523 2521 2524 1 110.700 313.800
2521 2524 2525 1 110.700 313.800
2521 2524 2526 1 110.700 313.800
2521 2524 2527 1 112.700 488.273
2525 2524 2526 1 107.800 276.144
2525 2524 2527 1 110.700 313.800
2526 2524 2527 1 110.700 313.800
2524 2527 2528 1 110.700 313.800
2524 2527 2529 1 110.700 313.800
2524 2527 2530 1 112.700 488.273
2528 2527 2529 1 107.800 276.144
2528 2527 2530 1 110.700 313.800
2529 2527 2530 1 110.700 313.800
2527 2530 2531 1 110.700 313.800
2527 2530 2532 1 110.700 313.800
2527 2530 2533 1 112.700 488.273
2531 2530 2532 1 107.800 276.144
2531 2530 2533 1 110.700 313.800
2532 2530 2533 1 110.700 313.800
2530 2533 2534 1 110.700 313.800
2530 2533 2535 1 110.700 313.800
2530 2533 2536 1 112.700 488.273
2534 2533 2535 1 107.800 276.144
2534 2533 2536 1 110.700 313.800
2535 2533 2536 1 110.700 313.800
2533 2536 2537 1 110.700 313.800
2533 2536 2538 1 110.700 313.800
2533 2536 2539 1 112.700 488.273
2537 2536 2538 1 107.800 276.144
2537 2536 2539 1 110.700 313.800
2538 2536 2539 1 110.700 313.800
2536 2539 2540 1 110.700 313.800
2536 2539 2541 1 110.700 313.800
2536 2539 2542 1 112.700 488.273
2540 2539 2541 1 107.800 276.144
2540 2539 2542 1 110.700 313.800
2541 2539 2542 1 110.700 313.800
2539 2542 2543 1 110.700 313.800
2539 2542 2544 1 110.700 313.800
2539 2542 2545 1 112.700 488.273
2543 2542 2544 1 107.800 276.144
2543 2542 2545 1 110.700 313.800
2544 2542 2545 1 110.700 313.800
2542 2545 2546 1 110.700 313.800
2542 2545 2547 1 110.700 313.800
2542 2545 2548 1 112.700 488.273
2546 2545 2547 1 107.800 276.144
2546 2545 2548 1 110.700 313.800
2547 2545 2548 1 110.700 313.800
2545 2548 2549 1 110.700 313.800
2545 2548 2550 1 110.700 313.800
2545 2548 2551 1 112.700 488.273
2549 2548 2550 1 107.800 276.144
2549 2548 2551 1 110.700 313.800
2550 2548 2551 1 110.700 313.800
2548 2551 2552 1 110.700 313.800
2548 2551 2553 1 110.700 313.800
2548 2551 2554 1 112.700 488.273
2552 2551 2553 1 107.800 276.144
2552 2551 2554 1 110.700 313.800
2553 2551 2554 1 110.700 313.800
2551 2554 2555 1 110.700 313.800
2551 2554 2556 1 110.700 313.800
2551 2554 2557 1 112.700 488.273
2555 2554 2556 1 107.800 276.144
2555 2554 2557 1 110.700 313.800
2556 2554 2557 1 110.700 313.800
2554 2557 2558 1 110.700 313.800
2554 2557 2559 1 110.700 313.800
2554 2557 2560 1 112.700 488.273
2558 2557 2559 1 107.800 276.144
2558 2557 2560 1 110.700 313.800
2559 2557 2560 1 110.700 313.800
2557 2560 2561 1 110.700 313.800
2557 2560 2562 1 110.700 313.800
2557 2560 2563 1 112.700 488.273
2561 2560 2562 1 107.800 276.144
2561 2560 2563 1 110.700 313.800
2562 2560 2563 1 110.700 313.800
2560 2563 2564 1 110.700 313.800
2560 2563 2565 1 110.700 313.800
2560 2563 2566 1 112.700 488.273
2564 2563 2565 1 107.800 276.144
2564 2563 2566 1 110.700 313.800
2565 2563 2566 1 110.700 313.800
2563 2566 2567 1 110.700 313.800
2563 2566 2568 1 110.700 313.800
2563 2566 2569 1 112.700 488.273
2567 2566 2568 1 107.800 276.144
2567 2566 2569 1 110.700 313.800
2568 2566 2569 1 110.700 313.800
2566 2569 2570 1 110.700 313.800
2566 2569 2571 1 110.700 313.800
2566 2569 2572 1 110.700 313.800
2570 2569 2571 1 107.800 276.144
2570 2569 2572 1 107.800 276.144
2571 2569 2572 1 107.800 276.144
2573 2574 2575 1 107.800 276.144
2573 2574 2576 1 107.800 276.144
2573 2574 2577 1 109.500 292.880
2575 2574 2576 1 107.800 276.144
2575 2574 2577 1 109.500 292.880
2576 2574 2577 1 109.500 292.880
2512 2577 2574 1 112.700000 488.273000
2512 2577 2578 1 112.700000 488.273000
2512 2577 2581 1 112.700000 488.273000
2574 2577 2578 1 124.000 585.760
2574 2577 2581 1 119.700 585.760
2578 2577 2581 1 120.700 711.280
2577 2578 2579 1 120.000 292.880
2577 2578 2580 1 120.000 292.880
2577 2578 2613 1 112.700000 488.273000
2579 2578 2580 1 117.000 292.880
2579 2578 2613 1 110.700000 313.800000
2580 2578 2613 1 110.700000 313.800000
2577 2581 2582 1 125.300 669.440
2577 2581 2583 1 111.400 677.808
2582 2581 2583 1 123.400 694.544
2581 2583 2584 1 116.900 694.544
2583 2584 2585 1 109.500 292.880
2583 2584 2586 1 109.500 292.880
2583 2584 2587 1 109.500 418.400
2585 2584 2586 1 107.800 276.144
2585 2584 2587 1 110.700 313.800
2586 2584 2587 1 110.700 313.800
2584 2587 2588 1 110.700 313.800
2584 2587 2589 1 112.700 488.273
2584 2587 2596 1 112.700 488.273
2588 2587 2589 1 110.700 313.800
2588 2587 2596 1 110.700 313.800
2589 2587 2596 1 112.700 488.273
2587 2589 2590 1 110.700 313.800
2587 2589 2591 1 110.700 313.800
2587 2589 2592 1 112.700 488.273
2590 2589 2591 1 107.800 276.144
2590 2589 2592 1 110.700 313.800
2591 2589 2592 1 110.700 313.800
2589 2592 2593 1 110.700 313.800
2589 2592 2594 1 110.700 313.800
2589 2592 2595 1 110.700 313.800
2593 2592 2594 1 107.800 276.144
2593 2592 2595 1 107.800 276.144
2594 2592 2595 1 107.800 276.144
2587 2596 2597 1 110.700 313.800
2587 2596 2598 1 110.700 313.800
2587 2596 2599 1 112.700 488.273
2597 2596 2598 1 107.800 276.144
2597 2596 2599 1 110.700 313.800
2598 2596 2599 1 110.700 313.800
2596 2599 2600 1 110.700 313.800
2596 2599 2601 1 110.700 313.800
2596 2599 2602 1 112.700 488.273
2600 2599 2601 1 107.800 276.144
2600 2599 2602 1 110.700 313.800
2601 2599 2602 1 110.700 313.800
2599 2602 2603 1 110.700 313.800
2599 2602 2604 1 110.700 313.800
2599 2602 2605 1 112.700 488.273
2603 2602 2604 1 107.800 276.144
2603 2602 2605 1 110.700 313.800
2604 2602 2605 1 110.700 313.800
2602 2605 2606 1 110.700 313.800
2602 2605 2607 1 110.700 313.800
2602 2605 2608 1 110.700 313.800
2606 2605 2607 1 107.800 276.144
2606 2605 2608 1 107.800 276.144
2607 2605 2608 1 107.800 276.144
2609 2610 2611 1 107.800 276.144
2609 2610 2612 1 107.800 276.144
2609 2610 2613 1 109.500 292.880
2611 2610 2612 1 107.800 276.144
2611 2610 2613 1 109.500 292.880
2612 2610 2613 1 109.500 292.880
2578 2613 2610 1 112.700000 488.273000
2578 2613 2614 1 112.700000 488.273000
2578 2613 2617 1 112.700000 488.273000
2610 2613 2614 1 124.000 585.760
2610 2613 2617 1 119.700 585.760
2614 2613 2617 1 120.700 711.280
2613 2614 2615 1 120.000 292.880
2613 2614 2616 1 120.000 292.880
2613 2614 2679 1 112.700000 488.273000
2615 2614 2616 1 117.000 292.880
2615 2614 2679 1 110.700000 313.800000
2616 2614 2679 1 110.700000 313.800000
2613 2617 2618 1 125.300 669.440
2613 2617 2619 1 111.400 677.808
2618 2617 2619 1 123.400 694.544
2617 2619 2620 1 116.900 694.544
2619 2620 2621 1 109.500 292.880
2619 2620 2622 1 109.500 292.880
2619 2620 2623 1 109.500 418.400
2621 2620 2622 1 107.800 276.144
2621 2620 2623 1 110.700 313.800
2622 2620 2623 1 110.700 313.800
2620 2623 2624 1 110.700 313.800
2620 2623 2625 1 110.700 313.800
2620 2623 2626 1 112.700 488.273
2624 2623 2625 1 107.800 276.144
2624 2623 2626 1 110.700 313.800
2625 2623 2626 1 110.700 313.800
2623 2626 2627 1 110.700 313.800
2623 2626 2628 1 110.700 313.800
2623 2626 2629 1 112.700 488.273
2627 2626 2628 1 107.800 276.144
2627 2626 2629 1 110.700 313.800
2628 2626 2629 1 110.700 313.800
2626 2629 2630 1 110.700 313.800
2626 2629 2631 1 110.700 313.800
2626 2629 2632 1 112.700 488.273
2630 2629 2631 1 107.800 276.144
2630 2629 2632 1 110.700 313.800
2631 2629 2632 1 110.700 313.800
2629 2632 2633 1 110.700 313.800
2629 2632 2634 1 110.700 313.800
2629 2632 2635 1 112.700 488.273
2633 2632 2634 1 107.800 276.144
2633 2632 2635 1 110.700 313.800
2634 2632 2635 1 110.700 313.800
2632 2635 2636 1 110.700 313.800
2632 2635 2637 1 110.700 313.800
2632 2635 2638 1 112.700 488.273
2636 2635 2637 1 107.800 276.144
2636 2635 2638 1 110.700 313.800
2637 2635 2638 1 110.700 313.800
2635 2638 2639 1 110.700 313.800
2635 2638 2640 1 110.700 313.800
2635 2638 2641 1 112.700 488.273
2639 2638 2640 1 107.800 276.144
2639 2638 2641 1 110.700 313.800
2640 2638 2641 1 110.700 313.800
2638 2641 2642 1 110.700 313.800
2638 2641 2643 1 110.700 313.800
2638 2641 2644 1 112.700 488.273
2642 2641 2643 1 107.800 276.144
2642 2641 2644 1 110.700 313.800
2643 2641 2644 1 110.700 313.800
2641 2644 2645 1 110.700 313.800
2641 2644 2646 1 110.700 313.800
2641 2644 2647 1 112.700 488.273
2645 2644 2646 1 107.800 276.144
2645 2644 2647 1 110.700 313.800
2646 2644 2647 1 110.700 313.800
2644 2647 2648 1 110.700 313.800
2644 2647 2649 1 110.700 313.800
2644 2647 2650 1 112.700 488.273
2648 2647 2649 1 107.800 276.144
2648 2647 2650 1 110.700 313.800
2649 2647 2650 1 110.700 313.800
2647 2650 2651 1 110.700 313.800
2647 2650 2652 1 110.700 313.800
2647 2650 2653 1 112.700 488.273
2651 2650 2652 1 107.800 276.144
2651 2650 2653 1 110.700 313.800
2652 2650 2653 1 110.700 313.800
2650 2653 2654 1 110.700 313.800
2650 2653 2655 1 110.700 313.800
2650 2653 2656 1 112.700 488.273
2654 2653 2655 1 107.800 276.144
2654 2653 2656 1 110.700 313.800
2655 2653 2656 1 110.700 313.800
2653 2656 2657 1 110.700 313.800
2653 2656 2658 1 110.700 313.800
2653 2656 2659 1 112.700 488.273
2657 2656 2658 1 107.800 276.144
2657 2656 2659 1 110.700 313.800
2658 2656 2659 1 110.700 313.800
2656 2659 2660 1 110.700 313.800
2656 2659 2661 1 110.700 313.800
2656 2659 2662 1 112.700 488.273
2660 2659 2661 1 107.800 276.144
2660 2659 2662 1 110.700 313.800
2661 2659 2662 1 110.700 313.800
2659 2662 2663 1 110.700 313.800
2659 2662 2664 1 110.700 313.800
2659 2662 2665 1 112.700 488.273
2663 2662 2664 1 107.800 276.144
2663 2662 2665 1 110.700 313.800
2664 2662 2665 1 110.700 313.800
2662 2665 2666 1 110.700 313.800
2662 2665 2667 1 110.700 313.800
2662 2665 2668 1 112.700 488.273
2666 2665 2667 1 107.800 276.144
2666 2665 2668 1 110.700 313.800
2667 2665 2668 1 110.700 313.800
2665 2668 2669 1 110.700 313.800
2665 2668 2670 1 110.700 313.800
2665 2668 2671 1 112.700 488.273
2669 2668 2670 1 107.800 276.144
2669 2668 2671 1 110.700 313.800
2670 2668 2671 1 110.700 313.800
2668 2671 2672 1 110.700 313.800
2668 2671 2673 1 110.700 313.800
2668 2671 2674 1 110.700 313.800
2672 2671 2673 1 107.800 276.144
2672 2671 2674 1 107.800 276.144
2673 2671 2674 1 107.800 276.144
2675 2676 2677 1 107.800 276.144
2675 2676 2678 1 107.800 276.144
2675 2676 2679 1 109.500 292.880
2677 2676 2678 1 107.800 276.144
2677 2676 2679 1 109.500 292.880
2678 2676 2679 1 109.500 292.880
2614 2679 2676 1 112.700000 488.273000
2614 2679 2680 1 112.700000 488.273000
2614 2679 2683 1 112.700000 488.273000
2676 2679 2680 1 124.000 585.760
2676 2679 2683 1 119.700 585.760
2680 2679 2683 1 120.700 711.280
2679 2680 2681 1 120.000 292.880
2679 2680 2682 1 120.000 292.880
2679 2680 2715 1 112.700000 488.273000
2681 2680 2682 1 117.000 292.880
2681 2680 2715 1 110.700000 313.800000
2682 2680 2715 1 110.700000 313.800000
2679 2683 2684 1 125.300 669.440
2679 2683 2685 1 111.400 677.808
2684 2683 2685 1 123.400 694.544
2683 2685 2686 1 116.900 694.544
2685 2686 2687 1 109.500 292.880
2685 2686 2688 1 109.500 292.880
2685 2686 2689 1 109.500 418.400
2687 2686 2688 1 107.800 276.144
2687 2686 2689 1 110.700 313.800
2688 2686 2689 1 110.700 313.800
2686 2689 2690 1 110.700 313.800
2686 2689 2691 1 112.700 488.273
2686 2689 2698 1 112.700 488.273
2690 2689 2691 1 110.700 313.800
2690 2689 2698 1 110.700 313.800
2691 2689 2698 1 112.700 488.273
2689 2691 2692 1 110.700 313.800
2689 2691 2693 1 110.700 313.800
2689 2691 2694 1 112.700 488.273
2692 2691 2693 1 107.800 276.144
2692 2691 2694 1 110.700 313.800
2693 2691 2694 1 110.700 313.800
2691 2694 2695 1 110.700 313.800
2691 2694 2696 1 110.700 313.800
2691 2694 2697 1 110.700 313.800
2695 2694 2696 1 107.800 276.144
2695 2694 2697 1 107.800 276.144
2696 2694 2697 1 107.800 276.144
2689 2698 2699 1 110.700 313.800
2689 2698 2700 1 110.700 313.800
2689 2698 2701 1 112.700 488.273
2699 2698 2700 1 107.800 276.144
2699 2698 2701 1 110.700 313.800
2700 2698 2701 1 110.700 313.800
2698 2701 2702 1 110.700 313.800
2698 2701 2703 1 110.700 313.800
2698 2701 2704 1 112.700 488.273
2702 2701 2703 1 107.800 276.144
2702 2701 2704 1 110.700 313.800
2703 2701 2704 1 110.700 313.800
2701 2704 2705 1 110.700 313.800
2701 2704 2706 1 110.700 313.800
2701 2704 2707 1 112.700 488.273
2705 2704 2706 1 107.800 276.144
2705 2704 2707 1 110.700 313.800
2706 2704 2707 1 110.700 313.800
2704 2707 2708 1 110.700 313.800
2704 2707 2709 1 110.700 313.800
2704 2707 2710 1 110.700 313.800
2708 2707 2709 1 107.800 276.144
2708 2707 2710 1 107.800 276.144
2709 2707 2710 1 107.800 276.144
2711 2712 2713 1 107.800 276.144
2711 2712 2714 1 107.800 276.144
2711 2712 2715 1 109.500 292.880
2713 2712 2714 1 107.800 276.144
2713 2712 2715 1 109.500 292.880
2714 2712 2715 1 109.500 292.880
2680 2715 2712 1 112.700000 488.273000
2680 2715 2716 1 112.700000 488.273000
2680 2715 2719 1 112.700000 488.273000
2712 2715 2716 1 124.000 585.760
2712 2715 2719 1 119.700 585.760
2716 2715 2719 1 120.700 711.280
2715 2716 2717 1 120.000 292.880
2715 2716 2718 1 120.000 292.880
2715 2716 2763 1 112.700000 488.273000
2717 2716 2718 1 117.000 292.880
2717 2716 2763 1 110.700000 313.800000
2718 2716 2763 1 110.700000 313.800000
2715 2719 2720 1 125.300 669.440
2715 2719 2721 1 111.400 677.808
2720 2719 2721 1 123.400 694.544
2719 2721 2722 1 116.900 694.544
2721 2722 2723 1 109.500 292.880
2721 2722 2724 1 109.500 292.880
2721 2722 2725 1 109.500 418.400
2723 2722 2724 1 107.800 276.144
2723 2722 2725 1 110.700 313.800
2724 2722 2725 1 110.700 313.800
2722 2725 2726 1 110.700 313.800
2722 2725 2727 1 110.700 313.800
2722 2725 2728 1 112.700 488.273
2726 2725 2727 1 107.800 276.144
2726 2725 2728 1 110.700 313.800
2727 2725 2728 1 110.700 313.800
2725 2728 2729 1 110.700 313.800
2725 2728 2730 1 110.700 313.800
2725 2728 2731 1 112.700 488.273
2729 2728 2730 1 107.800 276.144
2729 2728 2731 1 110.700 313.800
2730 2728 2731 1 110.700 313.800
2728 2731 2732 1 110.700 313.800
2728 2731 2733 1 110.700 313.800
2728 2731 2734 1 112.700 488.273
2732 2731 2733 1 107.800 276.144
2732 2731 2734 1 110.700 313.800
2733 2731 2734 1 110.700 313.800
2731 2734 2735 1 110.700 313.800
2731 2734 2736 1 110.700 313.800
2731 2734 2737 1 112.700 488.273
2735 2734 2736 1 107.800 276.144
2735 2734 2737 1 110.700 313.800
2736 2734 2737 1 110.700 313.800
2734 2737 2738 1 110.700 313.800
2734 2737 2739 1 110.700 313.800
2734 2737 2740 1 112.700 488.273
2738 2737 2739 1 107.800 276.144
2738 2737 2740 1 110.700 313.800
2739 2737 2740 1 110.700 313.800
2737 2740 2741 1 110.700 313.800
2737 2740 2742 1 110.700 313.800
2737 2740 2743 1 112.700 488.273
2741 2740 2742 1 107.800 276.144
2741 2740 2743 1 110.700 313.800
2742 2740 2743 1 110.700 313.800
2740 2743 2744 1 110.700 313.800
2740 2743 2745 1 110.700 313.800
2740 2743 2746 1 112.700 488.273
2744 2743 2745 1 107.800 276.144
2744 2743 2746 1 110.700 313.800
2745 2743 2746 1 110.700 313.800
2743 2746 2747 1 110.700 313.800
2743 2746 2748 1 110.700 313.800
2743 2746 2749 1 112.700 488.273
2747 2746 2748 1 107.800 276.144
2747 2746 2749 1 110.700 313.800
2748 2746 2749 1 110.700 313.800
2746 2749 2750 1 110.700 313.800
2746 2749 2751 1 110.700 313.800
2746 2749 2752 1 112.700 488.273
2750 2749 2751 1 107.800 276.144
2750 2749 2752 1 110.700 313.800
2751 2749 2752 1 110.700 313.800
2749 2752 2753 1 110.700 313.800
2749 2752 2754 1 110.700 313.800
2749 2752 2755 1 112.700 488.273
2753 2752 2754 1 107.800 276.144
2753 2752 2755 1 110.700 313.800
2754 2752 2755 1 110.700 313.800
2752 2755 2756 1 110.700 313.800
2752 2755 2757 1 110.700 313.800
2752 2755 2758 1 110.700 313.800
2756 2755 2757 1 107.800 276.144
2756 2755 2758 1 107.800 276.144
2757 2755 2758 1 107.800 276.144
2759 2760 2761 1 107.800 276.144
2759 2760 2762 1 107.800 276.144
2759 2760 2763 1 109.500 292.880
2761 2760 2762 1 107.800 276.144
2761 2760 2763 1 109.500 292.880
2762 2760 2763 1 109.500 292.880
2716 2763 2760 1 112.700000 488.273000
2716 2763 2764 1 112.700000 488.273000
2716 2763 2767 1 112.700000 488.273000
2760 2763 2764 1 124.000 585.760
2760 2763 2767 1 119.700 585.760
2764 2763 2767 1 120.700 711.280
2763 2764 2765 1 120.000 292.880
2763 2764 2766 1 120.000 292.880
2763 2764 2799 1 112.700000 488.273000
2765 2764 2766 1 117.000 292.880
2765 2764 2799 1 110.700000 313.800000
2766 2764 2799 1 110.700000 313.800000
2763 2767 2768 1 125.300 669.440
2763 2767 2769 1 111.400 677.808
2768 2767 2769 1 123.400 694.544
2767 2769 2770 1 116.900 694.544
2769 2770 2771 1 109.500 292.880
2769 2770 2772 1 109.500 292.880
2769 2770 2773 1 109.500 418.400
2771 2770 2772 1 107.800 276.144
2771 2770 2773 1 110.700 313.800
2772 2770 2773 1 110.700 313.800
2770 2773 2774 1 110.700 313.800
2770 2773 2775 1 112.700 488.273
2770 2773 2782 1 112.700 488.273
2774 2773 2775 1 110.700 313.800
2774 2773 2782 1 110.700 313.800
2775 2773 2782 1 112.700 488.273
2773 2775 2776 1 110.700 313.800
2773 2775 2777 1 110.700 313.800
2773 2775 2778 1 112.700 488.273
2776 2775 2777 1 107.800 276.144
2776 2775 2778 1 110.700 313.800
2777 2775 2778 1 110.700 313.800
2775 2778 2779 1 110.700 313.800
2775 2778 2780 1 110.700 313.800
2775 2778 2781 1 110.700 313.800
2779 2778 2780 1 107.800 276.144
2779 2778 2781 1 107.800 276.144
2780 2778 2781 1 107.800 276.144
2773 2782 2783 1 110.700 313.800
2773 2782 2784 1 110.700 313.800
2773 2782 2785 1 112.700 488.273
2783 2782 2784 1 107.800 276.144
2783 2782 2785 1 110.700 313.800
2784 2782 2785 1 110.700 313.800
2782 2785 2786 1 110.700 313.800
2782 2785 2787 1 110.700 313.800
2782 2785 2788 1 112.700 488.273
2786 2785 2787 1 107.800 276.144
2786 2785 2788 1 110.700 313.800
2787 2785 2788 1 110.700 313.800
2785 2788 2789 1 110.700 313.800
2785 2788 2790 1 110.700 313.800
2785 2788 2791 1 112.700 488.273
2789 2788 2790 1 107.800 276.144
2789 2788 2791 1 110.700 313.800
2790 2788 2791 1 110.700 313.800
2788 2791 2792 1 110.700 313.800
2788 2791 2793 1 110.700 313.800
2788 2791 2794 1 110.700 313.800
2792 2791 2793 1 107.800 276.144
2792 2791 2794 1 107.800 276.144
2793 2791 2794 1 107.800 276.144
2795 2796 2797 1 107.800 276.144
2795 2796 2798 1 107.800 276.144
2795 2796 2799 1 109.500 292.880
2797 2796 2798 1 107.800 276.144
2797 2796 2799 1 109.500 292.880
2798 2796 2799 1 109.500 292.880
2764 2799 2796 1 112.700000 488.273000
2764 2799 2800 1 112.700000 488.273000
2764 2799 2803 1 112.700000 488.273000
2796 2799 2800 1 124.000 585.760
2796 2799 2803 1 119.700 585.760
2800 2799 2803 1 120.700 711.280
2799 2800 2801 1 120.000 292.880
2799 2800 2802 1 120.000 292.880
2799 2800 2835 1 112.700000 488.273000
2801 2800 2802 1 117.000 292.880
2801 2800 2835 1 110.700000 313.800000
2802 2800 2835 1 110.700000 313.800000
2799 2803 2804 1 125.300 669.440
2799 2803 2805 1 111.400 677.808
2804 2803 2805 1 123.400 694.544
2803 2805 2806 1 116.900 694.544
2805 2806 2807 1 109.500 292.880
2805 2806 2808 1 109.500 292.880
2805 2806 2809 1 109.500 418.400
2807 2806 2808 1 107.800 276.144
2807 2806 2809 1 110.700 313.800
2808 2806 2809 1 110.700 313.800
2806 2809 2810 1 110.700 313.800
2806 2809 2811 1 112.700 488.273
2806 2809 2818 1 112.700 488.273
2810 2809 2811 1 110.700 313.800
2810 2809 2818 1 110.700 313.800
2811 2809 2818 1 112.700 488.273
2809 2811 2812 1 110.700 313.800
2809 2811 2813 1 110.700 313.800
2809 2811 2814 1 112.700 488.273
2812 2811 2813 1 107.800 276.144
2812 2811 2814 1 110.700 313.800
2813 2811 2814 1 110.700 313.800
2811 2814 2815 1 110.700 313.800
2811 2814 2816 1 110.700 313.800
2811 2814 2817 1 110.700 313.800
2815 2814 2816 1 107.800 276.144
2815 2814 2817 1 107.800 276.144
2816 2814 2817 1 107.800 276.144
2809 2818 2819 1 110.700 313.800
2809 2818 2820 1 110.700 313.800
2809 2818 2821 1 112.700 488.273
2819 2818 2820 1 107.800 276.144
2819 2818 2821 1 110.700 313.800
2820 2818 2821 1 110.700 313.800
2818 2821 2822 1 110.700 313.800
2818 2821 2823 1 110.700 313.800
2818 2821 2824 1 112.700 488.273
2822 2821 2823 1 107.800 276.144
2822 2821 2824 1 110.700 313.800
2823 2821 2824 1 110.700 313.800
2821 2824 2825 1 110.700 313.800
2821 2824 2826 1 110.700 313.800
2821 2824 2827 1 112.700 488.273
2825 2824 2826 1 107.800 276.144
2825 2824 2827 1 110.700 313.800
2826 2824 2827 1 110.700 313.800
2824 2827 2828 1 110.700 313.800
2824 2827 2829 1 110.700 313.800
2824 2827 2830 1 110.700 313.800
2828 2827 2829 1 107.800 276.144
2828 2827 2830 1 107.800 276.144
2829 2827 2830 1 107.800 276.144
2831 2832 2833 1 107.800 276.144
2831 2832 2834 1 107.800 276.144
2831 2832 2835 1 109.500 292.880
2833 2832 2834 1 107.800 276.144
2833 2832 2835 1 109.500 292.880
2834 2832 2835 1 109.500 292.880
2800 2835 2832 1 112.700000 488.273000
2800 2835 2836 1 112.700000 488.273000
2800 2835 2839 1 112.700000 488.273000
2832 2835 2836 1 124.000 585.760
2832 2835 2839 1 119.700 585.760
2836 2835 2839 1 120.700 711.280
2835 2836 2837 1 120.000 292.880
2835 2836 2838 1 120.000 292.880
2835 2836 2901 1 112.700000 488.273000
2837 2836 2838 1 117.000 292.880
2837 2836 2901 1 110.700000 313.800000
2838 2836 2901 1 110.700000 313.800000
2835 2839 2840 1 125.300 669.440
2835 2839 2841 1 111.400 677.808
2840 2839 2841 1 123.400 694.544
2839 2841 2842 1 116.900 694.544
2841 2842 2843 1 109.500 292.880
2841 2842 2844 1 109.500 292.880
2841 2842 2845 1 109.500 418.400
2843 2842 2844 1 107.800 276.144
2843 2842 2845 1 110.700 313.800
2844 2842 2845 1 110.700 313.800
2842 2845 2846 1 110.700 313.800
2842 2845 2847 1 110.700 313.800
2842 2845 2848 1 112.700 488.273
2846 2845 2847 1 107.800 276.144
2846 2845 2848 1 110.700 313.800
2847 2845 2848 1 110.700 313.800
2845 2848 2849 1 110.700 313.800
2845 2848 2850 1 110.700 313.800
2845 2848 2851 1 112.700 488.273
2849 2848 2850 1 107.800 276.144
2849 2848 2851 1 110.700 313.800
2850 2848 2851 1 110.700 313.800
2848 2851 2852 1 110.700 313.800
2848 2851 2853 1 110.700 313.800
2848 2851 2854 1 112.700 488.273
2852 2851 2853 1 107.800 276.144
2852 2851 2854 1 110.700 313.800
2853 2851 2854 1 110.700 313.800
2851 2854 2855 1 110.700 313.800
2851 2854 2856 1 110.700 313.800
2851 2854 2857 1 112.700 488.273
2855 2854 2856 1 107.800 276.144
2855 2854 2857 1 110.700 313.800
2856 2854 2857 1 110.700 313.800
2854 2857 2858 1 110.700 313.800
2854 2857 2859 1 110.700 313.800
2854 2857 2860 1 112.700 488.273
2858 2857 2859 1 107.800 276.144
2858 2857 2860 1 110.700 313.800
2859 2857 2860 1 110.700 313.800
2857 2860 2861 1 110.700 313.800
2857 2860 2862 1 110.700 313.800
2857 2860 2863 1 112.700 488.273
2861 2860 2862 1 107.800 276.144
2861 2860 2863 1 110.700 313.800
2862 2860 2863 1 110.700 313.800
2860 2863 2864 1 110.700 313.800
2860 2863 2865 1 110.700 313.800
2860 2863 2866 1 112.700 488.273
2864 2863 2865 1 107.800 276.144
2864 2863 2866 1 110.700 313.800
2865 2863 2866 1 110.700 313.800
2863 2866 2867 1 110.700 313.800
2863 2866 2868 1 110.700 313.800
2863 2866 2869 1 112.700 488.273
2867 2866 2868 1 107.800 276.144
2867 2866 2869 1 110.700 313.800
2868 2866 2869 1 110.700 313.800
2866 2869 2870 1 110.700 313.800
2866 2869 2871 1 110.700 313.800
2866 2869 2872 1 112.700 488.273
2870 2869 2871 1 107.800 276.144
2870 2869 2872 1 110.700 313.800
2871 2869 2872 1 110.700 313.800
2869 2872 2873 1 110.700 313.800
2869 2872 2874 1 110.700 313.800
2869 2872 2875 1 112.700 488.273
2873 2872 2874 1 107.800 276.144
2873 2872 2875 1 110.700 313.800
2874 2872 2875 1 110.700 313.800
2872 2875 2876 1 110.700 313.800
2872 2875 2877 1 110.700 313.800
2872 2875 2878 1 112.700 488.273
2876 2875 2877 1 107.800 276.144
2876 2875 2878 1 110.700 313.800
2877 2875 2878 1 110.700 313.800
2875 2878 2879 1 110.700 313.800
2875 2878 2880 1 110.700 313.800
2875 2878 2881 1 112.700 488.273
2879 2878 2880 1 107.800 276.144
2879 2878 2881 1 110.700 313.800
2880 2878 2881 1 110.700 313.800
2878 2881 2882 1 110.700 313.800
2878 2881 2883 1 110.700 313.800
2878 2881 2884 1 112.700 488.273
2882 2881 2883 1 107.800 276.144
2882 2881 2884 1 110.700 313.800
2883 2881 2884 1 110.700 313.800
2881 2884 2885 1 110.700 313.800
2881 2884 2886 1 110.700 313.800
2881 2884 2887 1 112.700 488.273
2885 2884 2886 1 107.800 276.144
2885 2884 2887 1 110.700 313.800
2886 2884 2887 1 110.700 313.800
2884 2887 2888 1 110.700 313.800
2884 2887 2889 1 110.700 313.800
2884 2887 2890 1 112.700 488.273
2888 2887 2889 1 107.800 276.144
2888 2887 2890 1 110.700 313.800
2889 2887 2890 1 110.700 313.800
2887 2890 2891 1 110.700 313.800
2887 2890 2892 1 110.700 313.800
2887 2890 2893 1 112.700 488.273
2891 2890 2892 1 107.800 276.144
2891 2890 2893 1 110.700 313.800
2892 2890 2893 1 110.700 313.800
2890 2893 2894 1 110.700 313.800
2890 2893 2895 1 110.700 313.800
2890 2893 2896 1 110.700 313.800
2894 2893 2895 1 107.800 276.144
2894 2893 2896 1 107.800 276.144
2895 2893 2896 1 107.800 276.144
2897 2898 2899 1 107.800 276.144
2897 2898 2900 1 107.800 276.144
2897 2898 2901 1 109.500 292.880
2899 2898 2900 1 107.800 276.144
2899 2898 2901 1 109.500 292.880
2900 2898 2901 1 109.500 292.880
2836 2901 2898 1 112.700000 488.273000
2836 2901 2902 1 112.700000 488.273000
2836 2901 2905 1 112.700000 488.273000
2898 2901 2902 1 124.000 585.760
2898 2901 2905 1 119.700 585.760
2902 2901 2905 1 120.700 711.280
2901 2902 2903 1 120.000 292.880
2901 2902 2904 1 120.000 292.880
2901 2902 2937 1 112.700000 488.273000
2903 2902 2904 1 117.000 292.880
2903 2902 2937 1 110.700000 313.800000
2904 2902 2937 1 110.700000 313.800000
2901 2905 2906 1 125.300 669.440
2901 2905 2907 1 111.400 677.808
2906 2905 2907 1 123.400 694.544
2905 2907 2908 1 116.900 694.544
2907 2908 2909 1 109.500 292.880
2907 2908 2910 1 109.500 292.880
2907 2908 2911 1 109.500 418.400
2909 2908 2910 1 107.800 276.144
2909 2908 2911 1 110.700 313.800
2910 2908 2911 1 110.700 313.800
2908 2911 2912 1 110.700 313.800
2908 2911 2913 1 112.700 488.273
2908 2911 2920 1 112.700 488.273
2912 2911 2913 1 110.700 313.800
2912 2911 2920 1 110.700 313.800
2913 2911 2920 1 112.700 488.273
2911 2913 2914 1 110.700 313.800
2911 2913 2915 1 110.700 313.800
2911 2913 2916 1 112.700 488.273
2914 2913 2915 1 107.800 276.144
2914 2913 2916 1 110.700 313.800
2915 2913 2916 1 110.700 313.800
2913 2916 2917 1 110.700 313.800
2913 2916 2918 1 110.700 313.800
2913 2916 2919 1 110.700 313.800
2917 2916 2918 1 107.800 276.144
2917 2916 2919 1 107.800 276.144
2918 2916 2919 1 107.800 276.144
2911 2920 2921 1 110.700 313.800
2911 2920 2922 1 110.700 313.800
2911 2920 2923 1 112.700 488.273
2921 2920 2922 1 107.800 276.144
2921 2920 2923 1 110.700 313.800
2922 2920 2923 1 110.700 313.800
2920 2923 2924 1 110.700 313.800
2920 2923 2925 1 110.700 313.800
2920 2923 2926 1 112.700 488.273
2924 2923 2925 1 107.800 276.144
2924 2923 2926 1 110.700 313.800
2925 2923 2926 1 110.700 313.800
2923 2926 2927 1 110.700 313.800
2923 2926 2928 1 110.700 313.800
2923 2926 2929 1 112.700 488.273
2927 2926 2928 1 107.800 276.144
2927 2926 2929 1 110.700 313.800
2928 2926 2929 1 110.700 313.800
2926 2929 2930 1 110.700 313.800
2926 2929 2931 1 110.700 313.800
2926 2929 2932 1 110.700 313.800
2930 2929 2931 1 107.800 276.144
2930 2929 2932 1 107.800 276.144
2931 2929 2932 1 107.800 276.144
2933 2934 2935 1 107.800 276.144
2933 2934 2936 1 107.800 276.144
2933 2934 2937 1 109.500 292.880
2935 2934 2936 1 107.800 276.144
2935 2934 2937 1 109.500 292.880
2936 2934 2937 1 109.500 292.880
2902 2937 2934 1 112.700000 488.273000
2902 2937 2938 1 112.700000 488.273000
2902 2937 2941 1 112.700000 488.273000
2934 2937 2938 1 124.000 585.760
2934 2937 2941 1 119.700 585.760
2938 2937 2941 1 120.700 711.280
2937 2938 2939 1 120.000 292.880
2937 2938 2940 1 120.000 292.880
2937 2938 2985 1 112.700000 488.273000
2939 2938 2940 1 117.000 292.880
2939 2938 2985 1 110.700000 313.800000
2940 2938 2985 1 110.700000 313.800000
2937 2941 2942 1 125.300 669.440
2937 2941 2943 1 111.400 677.808
2942 2941 2943 1 123.400 694.544
2941 2943 2944 1 116.900 694.544
2943 2944 2945 1 109.500 292.880
2943 2944 2946 1 109.500 292.880
2943 2944 2947 1 109.500 418.400
2945 2944 2946 1 107.800 276.144
2945 2944 2947 1 110.700 313.800
2946 2944 2947 1 110.700 313.800
2944 2947 2948 1 110.700 313.800
2944 2947 2949 1 110.700 313.800
2944 2947 2950 1 112.700 488.273
2948 2947 2949 1 107.800 276.144
2948 2947 2950 1 110.700 313.800
2949 2947 2950 1 110.700 313.800
2947 2950 2951 1 110.700 313.800
2947 2950 2952 1 110.700 313.800
2947 2950 2953 1 112.700 488.273
2951 2950 2952 1 107.800 276.144
2951 2950 2953 1 110.700 313.800
2952 2950 2953 1 110.700 313.800
2950 2953 2954 1 110.700 313.800
2950 2953 2955 1 110.700 313.800
2950 2953 2956 1 112.700 488.273
2954 2953 2955 1 107.800 276.144
2954 2953 2956 1 110.700 313.800
2955 2953 2956 1 110.700 313.800
2953 2956 2957 1 110.700 313.800
2953 2956 2958 1 110.700 313.800
2953 2956 2959 1 112.700 488.273
2957 2956 2958 1 107.800 276.144
2957 2956 2959 1 110.700 313.800
2958 2956 2959 1 110.700 313.800
2956 2959 2960 1 110.700 313.800
2956 2959 2961 1 110.700 313.800
2956 2959 2962 1 112.700 488.273
2960 2959 2961 1 107.800 276.144
2960 2959 2962 1 110.700 313.800
2961 2959 2962 1 110.700 313.800
2959 2962 2963 1 110.700 313.800
2959 2962 2964 1 110.700 313.800
2959 2962 2965 1 112.700 488.273
2963 2962 2964 1 107.800 276.144
2963 2962 2965 1 110.700 313.800
2964 2962 2965 1 110.700 313.800
2962 2965 2966 1 110.700 313.800
2962 2965 2967 1 110.700 313.800
2962 2965 2968 1 112.700 488.273
2966 2965 2967 1 107.800 276.144
2966 2965 2968 1 110.700 313.800
2967 2965 2968 1 110.700 313.800
2965 2968 2969 1 110.700 313.800
2965 2968 2970 1 110.700 313.800
2965 2968 2971 1 112.700 488.273
2969 2968 2970 1 107.800 276.144
2969 2968 2971 1 110.700 313.800
2970 2968 2971 1 110.700 313.800
2968 2971 2972 1 110.700 313.800
2968 2971 2973 1 110.700 313.800
2968 2971 2974 1 112.700 488.273
2972 2971 2973 1 107.800 276.144
2972 2971 2974 1 110.700 313.800
2973 2971 2974 1 110.700 313.800
2971 2974 2975 1 110.700 313.800
2971 2974 2976 1 110.700 313.800
2971 2974 2977 1 112.700 488.273
2975 2974 2976 1 107.800 276.144
2975 2974 2977 1 110.700 313.800
2976 2974 2977 1 110.700 313.800
2974 2977 2978 1 110.700 313.800
2974 2977 2979 1 110.700 313.800
2974 2977 2980 1 110.700 313.800
2978 2977 2979 1 107.800 276.144
2978 2977 2980 1 107.800 276.144
2979 2977 2980 1 107.800 276.144
2981 2982 2983 1 107.800 276.144
2981 2982 2984 1 107.800 276.144
2981 2982 2985 1 109.500 292.880
2983 2982 2984 1 107.800 276.144
2983 2982 2985 1 109.500 292.880
2984 2982 2985 1 109.500 292.880
2938 2985 2982 1 112.700000 488.273000
2938 2985 2986 1 112.700000 488.273000
2938 2985 2989 1 112.700000 488.273000
2982 2985 2986 1 124.000 585.760
2982 2985 2989 1 119.700 585.760
2986 2985 2989 1 120.700 711.280
2985 2986 2987 1 120.000 292.880
2985 2986 2988 1 120.000 292.880
2985 2986 3021 1 112.700000 488.273000
2987 2986 2988 1 117.000 292.880
2987 2986 3021 1 110.700000 313.800000
2988 2986 3021 1 110.700000 313.800000
2985 2989 2990 1 125.300 669.440
2985 2989 2991 1 111.400 677.808
2990 2989 2991 1 123.400 694.544
2989 2991 2992 1 116.900 694.544
2991 2992 2993 1 109.500 292.880
2991 2992 2994 1 109.500 292.880
2991 2992 2995 1 109.500 418.400
2993 2992 2994 1 107.800 276.144
2993 2992 2995 1 110.700 313.800
2994 2992 2995 1 110.700 313.800
2992 2995 2996 1 110.700 313.800
2992 2995 2997 1 112.700 488.273
2992 2995 3004 1 112.700 488.273
2996 2995 2997 1 110.700 313.800
2996 2995 3004 1 110.700 313.800
2997 2995 3004 1 112.700 488.273
2995 2997 2998 1 110.700 313.800
2995 2997 2999 1 110.700 313.800
2995 2997 3000 1 112.700 488.273
2998 2997 2999 1 107.800 276.144
2998 2997 3000 1 110.700 313.800
2999 2997 3000 1 110.700 313.800
2997 3000 3001 1 110.700 313.800
2997 3000 3002 1 110.700 313.800
2997 3000 3003 1 110.700 313.800
3001 3000 3002 1 107.800 276.144
3001 3000 3003 1 107.800 276.144
3002 3000 3003 1 107.800 276.144
2995 3004 3005 1 110.700 313.800
2995 3004 3006 1 110.700 313.800
2995 3004 3007 1 112.700 488.273
3005 3004 3006 1 107.800 276.144
3005 3004 3007 1 110.700 313.800
3006 3004 3007 1 110.700 313.800
3004 3007 3008 1 110.700 313.800
3004 3007 3009 1 110.700 313.800
3004 3007 3010 1 112.700 488.273
3008 3007 3009 1 107.800 276.144
3008 3007 3010 1 110.700 313.800
3009 3007 3010 1 110.700 313.800
3007 3010 3011 1 110.700 313.800
3007 3010 3012 1 110.700 313.800
3007 3010 3013 1 112.700 488.273
3011 3010 3012 1 107.800 276.144
3011 3010 3013 1 110.700 313.800
3012 3010 3013 1 110.700 313.800
3010 3013 3014 1 110.700 313.800
3010 3013 3015 1 110.700 313.800
3010 3013 3016 1 110.700 313.800
3014 3013 3015 1 107.800 276.144
3014 3013 3016 1 107.800 276.144
3015 3013 3016 1 107.800 276.144
3017 3018 3019 1 107.800 276.144
3017 3018 3020 1 107.800 276.144
3017 3018 3021 1 109.500 292.880
3019 3018 3020 1 107.800 276.144
3019 3018 3021 1 109.500 292.880
3020 3018 3021 1 109.500 292.880
2986 3021 3018 1 112.700000 488.273000
2986 3021 3022 1 112.700000 488.273000
2986 3021 3025 1 112.700000 488.273000
3018 3021 3022 1 124.000 585.760
3018 3021 3025 1 119.700 585.760
3022 3021 3025 1 120.700 711.280
3021 3022 3023 1 120.000 292.880
3021 3022 3024 1 120.000 292.880
3021 3022 3069 1 112.700000 488.273000
3023 3022 3024 1 117.000 292.880
3023 3022 3069 1 110.700000 313.800000
3024 3022 3069 1 110.700000 313.800000
3021 3025 3026 1 125.300 669.440
3021 3025 3027 1 111.400 677.808
3026 3025 3027 1 123.400 694.544
3025 3027 3028 1 116.900 694.544
3027 3028 3029 1 109.500 292.880
3027 3028 3030 1 109.500 292.880
3027 3028 3031 1 109.500 418.400
3029 3028 3030 1 107.800 276.144
3029 3028 3031 1 110.700 313.800
3030 3028 3031 1 110.700 313.800
3028 3031 3032 1 110.700 313.800
3028 3031 3033 1 110.700 313.800
3028 3031 3034 1 112.700 488.273
3032 3031 3033 1 107.800 276.144
3032 3031 3034 1 110.700 313.800
3033 3031 3034 1 110.700 313.800
3031 3034 3035 1 110.700 313.800
3031 3034 3036 1 110.700 313.800
3031 3034 3037 1 112.700 488.273
3035 3034 3036 1 107.800 276.144
3035 3034 3037 1 110.700 313.800
3036 3034 3037 1 110.700 313.800
3034 3037 3038 1 110.700 313.800
3034 3037 3039 1 110.700 313.800
3034 3037 3040 1 112.700 488.273
3038 3037 3039 1 107.800 276.144
3038 3037 3040 1 110.700 313.800
3039 3037 3040 1 110.700 313.800
3037 3040 3041 1 110.700 313.800
3037 3040 3042 1 110.700 313.800
3037 3040 3043 1 112.700 488.273
3041 3040 3042 1 107.800 276.144
3041 3040 3043 1 110.700 313.800
3042 3040 3043 1 110.700 313.800
3040 3043 3044 1 110.700 313.800
3040 3043 3045 1 110.700 313.800
3040 3043 3046 1 112.700 488.273
3044 3043 3045 1 107.800 276.144
3044 3043 3046 1 110.700 313.800
3045 3043 3046 1 110.700 313.800
3043 3046 3047 1 110.700 313.800
3043 3046 3048 1 110.700 313.800
3043 3046 3049 1 112.700 488.273
3047 3046 3048 1 107.800 276.144
3047 3046 3049 1 110.700 313.800
3048 3046 3049 1 110.700 313.800
3046 3049 3050 1 110.700 313.800
3046 3049 3051 1 110.700 313.800
3046 3049 3052 1 112.700 488.273
3050 3049 3051 1 107.800 276.144
3050 3049 3052 1 110.700 313.800
3051 3049 3052 1 110.700 313.800
3049 3052 3053 1 110.700 313.800
3049 3052 3054 1 110.700 313.800
3049 3052 3055 1 112.700 488.273
3053 3052 3054 1 107.800 276.144
3053 3052 3055 1 110.700 313.800
3054 3052 3055 1 110.700 313.800
3052 3055 3056 1 110.700 313.800
3052 3055 3057 1 110.700 313.800
3052 3055 3058 1 112.700 488.273
3056 3055 3057 1 107.800 276.144
3056 3055 3058 1 110.700 313.800
3057 3055 3058 1 110.700 313.800
3055 3058 3059 1 110.700 313.800
3055 3058 3060 1 110.700 313.800
3055 3058 3061 1 112.700 488.273
3059 3058 3060 1 107.800 276.144
3059 3058 3061 1 110.700 313.800
3060 3058 3061 1 110.700 313.800
3058 3061 3062 1 110.700 313.800
3058 3061 3063 1 110.700 313.800
3058 3061 3064 1 110.700 313.800
3062 3061 3063 1 107.800 276.144
3062 3061 3064 1 107.800 276.144
3063 3061 3064 1 107.800 276.144
3065 3066 3067 1 107.800 276.144
3065 3066 3068 1 107.800 276.144
3065 3066 3069 1 109.500 292.880
3067 3066 3068 1 107.800 276.144
3067 3066 3069 1 109.500 292.880
3068 3066 3069 1 109.500 292.880
3022 3069 3066 1 112.700000 488.273000
3022 3069 3070 1 112.700000 488.273000
3022 3069 3073 1 112.700000 488.273000
3066 3069 3070 1 124.000 585.760
3066 3069 3073 1 119.700 585.760
3070 3069 3073 1 120.700 711.280
3069 3070 3071 1 120.000 292.880
3069 3070 3072 1 120.000 292.880
3069 3070 3135 1 112.700000 488.273000
3071 3070 3072 1 117.000 292.880
3071 3070 3135 1 110.700000 313.800000
3072 3070 3135 1 110.700000 313.800000
3069 3073 3074 1 125.300 669.440
3069 3073 3075 1 111.400 677.808
3074 3073 3075 1 123.400 694.544
3073 3075 3076 1 116.900 694.544
3075 3076 3077 1 109.500 292.880
3075 3076 3078 1 109.500 292.880
3075 3076 3079 1 109.500 418.400
3077 3076 3078 1 107.800 276.144
3077 3076 3079 1 110.700 313.800
3078 3076 3079 1 110.700 313.800
3076 3079 3080 1 110.700 313.800
3076 3079 3081 1 110.700 313.800
3076 3079 3082 1 112.700 488.273
3080 3079 3081 1 107.800 276.144
3080 3079 3082 1 110.700 313.800
3081 3079 3082 1 110.700 313.800
3079 3082 3083 1 110.700 313.800
3079 3082 3084 1 110.700 313.800
3079 3082 3085 1 112.700 488.273
3083 3082 3084 1 107.800 276.144
3083 3082 3085 1 110.700 313.800
3084 3082 3085 1 110.700 313.800
3082 3085 3086 1 110.700 313.800
3082 3085 3087 1 110.700 313.800
3082 3085 3088 1 112.700 488.273
3086 3085 3087 1 107.800 276.144
3086 3085 3088 1 110.700 313.800
3087 3085 3088 1 110.700 313.800
3085 3088 3089 1 110.700 313.800
3085 3088 3090 1 110.700 313.800
3085 3088 3091 1 112.700 488.273
3089 3088 3090 1 107.800 276.144
3089 3088 3091 1 110.700 313.800
3090 3088 3091 1 110.700 313.800
3088 3091 3092 1 110.700 313.800
3088 3091 3093 1 110.700 313.800
3088 3091 3094 1 112.700 488.273
3092 3091 3093 1 107.800 276.144
3092 3091 3094 1 110.700 313.800
3093 3091 3094 1 110.700 313.800
3091 3094 3095 1 110.700 313.800
3091 3094 3096 1 110.700 313.800
3091 3094 3097 1 112.700 488.273
3095 3094 3096 1 107.800 276.144
3095 3094 3097 1 110.700 313.800
3096 3094 3097 1 110.700 313.800
3094 3097 3098 1 110.700 313.800
3094 3097 3099 1 110.700 313.800
3094 3097 3100 1 112.700 488.273
3098 3097 3099 1 107.800 276.144
3098 3097 3100 1 110.700 313.800
3099 3097 3100 1 110.700 313.800
3097 3100 3101 1 110.700 313.800
3097 3100 3102 1 110.700 313.800
3097 3100 3103 1 112.700 488.273
3101 3100 3102 1 107.800 276.144
3101 3100 3103 1 110.700 313.800
3102 3100 3103 1 110.700 313.800
3100 3103 3104 1 110.700 313.800
3100 3103 3105 1 110.700 313.800
3100 3103 3106 1 112.700 488.273
3104 3103 3105 1 107.800 276.144
3104 3103 3106 1 110.700 313.800
3105 3103 3106 1 110.700 313.800
3103 3106 3107 1 110.700 313.800
3103 3106 3108 1 110.700 313.800
3103 3106 3109 1 112.700 488.273
3107 3106 3108 1 107.800 276.144
3107 3106 3109 1 110.700 313.800
3108 3106 3109 1 110.700 313.800
3106 3109 3110 1 110.700 313.800
3106 3109 3111 1 110.700 313.800
3106 3109 3112 1 112.700 488.273
3110 3109 3111 1 107.800 276.144
3110 3109 3112 1 110.700 313.800
3111 3109 3112 1 110.700 313.800
3109 3112 3113 1 110.700 313.800
3109 3112 3114 1 110.700 313.800
3109 3112 3115 1 112.700 488.273
3113 3112 3114 1 107.800 276.144
3113 3112 3115 1 110.700 313.800
3114 3112 3115 1 110.700 313.800
3112 3115 3116 1 110.700 313.800
3112 3115 3117 1 110.700 313.800
3112 3115 3118 1 112.700 488.273
3116 3115 3117 1 107.800 276.144
3116 3115 3118 1 110.700 313.800
3117 3115 3118 1 110.700 313.800
3115 3118 3119 1 110.700 313.800
3115 3118 3120 1 110.700 313.800
3115 3118 3121 1 112.700 488.273
3119 3118 3120 1 107.800 276.144
3119 3118 3121 1 110.700 313.800
3120 3118 3121 1 110.700 313.800
3118 3121 3122 1 110.700 313.800
3118 3121 3123 1 110.700 313.800
3118 3121 3124 1 112.700 488.273
3122 3121 3123 1 107.800 276.144
3122 3121 3124 1 110.700 313.800
3123 3121 3124 1 110.700 313.800
3121 3124 3125 1 110.700 313.800
3121 3124 3126 1 110.700 313.800
3121 3124 3127 1 112.700 488.273
3125 3124 3126 1 107.800 276.144
3125 3124 3127 1 110.700 313.800
3126 3124 3127 1 110.700 313.800
3124 3127 3128 1 110.700 313.800
3124 3127 3129 1 110.700 313.800
3124 3127 3130 1 110.700 313.800
3128 3127 3129 1 107.800 276.144
3128 3127 3130 1 107.800 276.144
3129 3127 3130 1 107.800 276.144
3131 3132 3133 1 107.800 276.144
3131 3132 3134 1 107.800 276.144
3131 3132 3135 1 109.500 292.880
3133 3132 3134 1 107.800 276.144
3133 3132 3135 1 109.500 292.880
3134 3132 3135 1 109.500 292.880
3070 3135 3132 1 112.700000 488.273000
3070 3135 3136 1 112.700000 488.273000
3070 3135 3139 1 112.700000 488.273000
3132 3135 3136 1 124.000 585.760
3132 3135 3139 1 119.700 585.760
3136 3135 3139 1 120.700 711.280
3135 3136 3137 1 120.000 292.880
3135 3136 3138 1 120.000 292.880
3135 3136 3201 1 112.700000 488.273000
3137 3136 3138 1 117.000 292.880
3137 3136 3201 1 110.700000 313.800000
3138 3136 3201 1 110.700000 313.800000
3135 3139 3140 1 125.300 669.440
3135 3139 3141 1 111.400 677.808
3140 3139 3141 1 123.400 694.544
3139 3141 3142 1 116.900 694.544
3141 3142 3143 1 109.500 292.880
3141 3142 3144 1 109.500 292.880
3141 3142 3145 1 109.500 418.400
3143 3142 3144 1 107.800 276.144
3143 3142 3145 1 110.700 313.800
3144 3142 3145 1 110.700 313.800
3142 3145 3146 1 110.700 313.800
3142 3145 3147 1 110.700 313.800
3142 3145 3148 1 112.700 488.273
3146 3145 3147 1 107.800 276.144
3146 3145 3148 1 110.700 313.800
3147 3145 3148 1 110.700 313.800
3145 3148 3149 1 110.700 313.800
3145 3148 3150 1 110.700 313.800
3145 3148 3151 1 112.700 488.273
3149 3148 3150 1 107.800 276.144
3149 3148 3151 1 110.700 313.800
3150 3148 3151 1 110.700 313.800
3148 3151 3152 1 110.700 313.800
3148 3151 3153 1 110.700 313.800
3148 3151 3154 1 112.700 488.273
3152 3151 3153 1 107.800 276.144
3152 3151 3154 1 110.700 313.800
3153 3151 3154 1 110.700 313.800
3151 3154 3155 1 110.700 313.800
3151 3154 3156 1 110.700 313.800
3151 3154 3157 1 112.700 488.273
3155 3154 3156 1 107.800 276.144
3155 3154 3157 1 110.700 313.800
3156 3154 3157 1 110.700 313.800
3154 3157 3158 1 110.700 313.800
3154 3157 3159 1 110.700 313.800
3154 3157 3160 1 112.700 488.273
3158 3157 3159 1 107.800 276.144
3158 3157 3160 1 110.700 313.800
3159 3157 3160 1 110.700 313.800
3157 3160 3161 1 110.700 313.800
3157 3160 3162 1 110.700 313.800
3157 3160 3163 1 112.700 488.273
3161 3160 3162 1 107.800 276.144
3161 3160 3163 1 110.700 313.800
3162 3160 3163 1 110.700 313.800
3160 3163 3164 1 110.700 313.800
3160 3163 3165 1 110.700 313.800
3160 3163 3166 1 112.700 488.273
3164 3163 3165 1 107.800 276.144
3164 3163 3166 1 110.700 313.800
3165 3163 3166 1 110.700 313.800
3163 3166 3167 1 110.700 313.800
3163 3166 3168 1 110.700 313.800
3163 3166 3169 1 112.700 488.273
3167 3166 3168 1 107.800 276.144
3167 3166 3169 1 110.700 313.800
3168 3166 3169 1 110.700 313.800
3166 3169 3170 1 110.700 313.800
3166 3169 3171 1 110.700 313.800
3166 3169 3172 1 112.700 488.273
3170 3169 3171 1 107.800 276.144
3170 3169 3172 1 110.700 313.800
3171 3169 3172 1 110.700 313.800
3169 3172 3173 1 110.700 313.800
3169 3172 3174 1 110.700 313.800
3169 3172 3175 1 112.700 488.273
3173 3172 3174 1 107.800 276.144
3173 3172 3175 1 110.700 313.800
3174 3172 3175 1 110.700 313.800
3172 3175 3176 1 110.700 313.800
3172 3175 3177 1 110.700 313.800
3172 3175 3178 1 112.700 488.273
3176 3175 3177 1 107.800 276.144
3176 3175 3178 1 110.700 313.800
3177 3175 3178 1 110.700 313.800
3175 3178 3179 1 110.700 313.800
3175 3178 3180 1 110.700 313.800
3175 3178 3181 1 112.700 488.273
3179 3178 3180 1 107.800 276.144
3179 3178 3181 1 110.700 313.800
3180 3178 3181 1 110.700 313.800
3178 3181 3182 1 110.700 313.800
3178 3181 3183 1 110.700 313.800
3178 3181 3184 1 112.700 488.273
3182 3181 3183 1 107.800 276.144
3182 3181 3184 1 110.700 313.800
3183 3181 3184 1 110.700 313.800
3181 3184 3185 1 110.700 313.800
3181 3184 3186 1 110.700 313.800
3181 3184 3187 1 112.700 488.273
3185 3184 3186 1 107.800 276.144
3185 3184 3187 1 110.700 313.800
3186 3184 3187 1 110.700 313.800
3184 3187 3188 1 110.700 313.800
3184 3187 3189 1 110.700 313.800
3184 3187 3190 1 112.700 488.273
3188 3187 3189 1 107.800 276.144
3188 3187 3190 1 110.700 313.800
3189 3187 3190 1 110.700 313.800
3187 3190 3191 1 110.700 313.800
3187 3190 3192 1 110.700 313.800
3187 3190 3193 1 112.700 488.273
3191 3190 3192 1 107.800 276.144
3191 3190 3193 1 110.700 313.800
3192 3190 3193 1 110.700 313.800
3190 3193 3194 1 110.700 313.800
3190 3193 3195 1 110.700 313.800
3190 3193 3196 1 110.700 313.800
3194 3193 3195 1 107.800 276.144
3194 3193 3196 1 107.800 276.144
3195 3193 3196 1 107.800 276.144
3197 3198 3199 1 107.800 276.144
3197 3198 3200 1 107.800 276.144
3197 3198 3201 1 109.500 292.880
3199 3198 3200 1 107.800 276.144
3199 3198 3201 1 109.500 292.880
3200 3198 3201 1 109.500 292.880
3136 3201 3198 1 112.700000 488.273000
3136 3201 3202 1 112.700000 488.273000
3136 3201 3205 1 112.700000 488.273000
3198 3201 3202 1 124.000 585.760
3198 3201 3205 1 119.700 585.760
3202 3201 3205 1 120.700 711.280
3201 3202 3203 1 120.000 292.880
3201 3202 3204 1 120.000 292.880
3201 3202 3267 1 112.700000 488.273000
3203 3202 3204 1 117.000 292.880
3203 3202 3267 1 110.700000 313.800000
3204 3202 3267 1 110.700000 313.800000
3201 3205 3206 1 125.300 669.440
3201 3205 3207 1 111.400 677.808
3206 3205 3207 1 123.400 694.544
3205 3207 3208 1 116.900 694.544
3207 3208 3209 1 109.500 292.880
3207 3208 3210 1 109.500 292.880
3207 3208 3211 1 109.500 418.400
3209 3208 3210 1 107.800 276.144
3209 3208 3211 1 110.700 313.800
3210 3208 3211 1 110.700 313.800
3208 3211 3212 1 110.700 313.800
3208 3211 3213 1 110.700 313.800
3208 3211 3214 1 112.700 488.273
3212 3211 3213 1 107.800 276.144
3212 3211 3214 1 110.700 313.800
3213 3211 3214 1 110.700 313.800
3211 3214 3215 1 110.700 313.800
3211 3214 3216 1 110.700 313.800
3211 3214 3217 1 112.700 488.273
3215 3214 3216 1 107.800 276.144
3215 3214 3217 1 110.700 313.800
3216 3214 3217 1 110.700 313.800
3214 3217 3218 1 110.700 313.800
3214 3217 3219 1 110.700 313.800
3214 3217 3220 1 112.700 488.273
3218 3217 3219 1 107.800 276.144
3218 3217 3220 1 110.700 313.800
3219 3217 3220 1 110.700 313.800
3217 3220 3221 1 110.700 313.800
3217 3220 3222 1 110.700 313.800
3217 3220 3223 1 112.700 488.273
3221 3220 3222 1 107.800 276.144
3221 3220 3223 1 110.700 313.800
3222 3220 3223 1 110.700 313.800
3220 3223 3224 1 110.700 313.800
3220 3223 3225 1 110.700 313.800
3220 3223 3226 1 112.700 488.273
3224 3223 3225 1 107.800 276.144
3224 3223 3226 1 110.700 313.800
3225 3223 3226 1 110.700 313.800
3223 3226 3227 1 110.700 313.800
3223 3226 3228 1 110.700 313.800
3223 3226 3229 1 112.700 488.273
3227 3226 3228 1 107.800 276.144
3227 3226 3229 1 110.700 313.800
3228 3226 3229 1 110.700 313.800
3226 3229 3230 1 110.700 313.800
3226 3229 3231 1 110.700 313.800
3226 3229 3232 1 112.700 488.273
3230 3229 3231 1 107.800 276.144
3230 3229 3232 1 110.700 313.800
3231 3229 3232 1 110.700 313.800
3229 3232 3233 1 110.700 313.800
3229 3232 3234 1 110.700 313.800
3229 3232 3235 1 112.700 488.273
3233 3232 3234 1 107.800 276.144
3233 3232 3235 1 110.700 313.800
3234 3232 3235 1 110.700 313.800
3232 3235 3236 1 110.700 313.800
3232 3235 3237 1 110.700 313.800
3232 3235 3238 1 112.700 488.273
3236 3235 3237 1 107.800 276.144
3236 3235 3238 1 110.700 313.800
3237 3235 3238 1 110.700 313.800
3235 3238 3239 1 110.700 313.800
3235 3238 3240 1 110.700 313.800
3235 3238 3241 1 112.700 488.273
3239 3238 3240 1 107.800 276.144
3239 3238 3241 1 110.700 313.800
3240 3238 3241 1 110.700 313.800
3238 3241 3242 1 110.700 313.800
3238 3241 3243 1 110.700 313.800
3238 3241 3244 1 112.700 488.273
3242 3241 3243 1 107.800 276.144
3242 3241 3244 1 110.700 313.800
3243 3241 3244 1 110.700 313.800
3241 3244 3245 1 110.700 313.800
3241 3244 3246 1 110.700 313.800
3241 3244 3247 1 112.700 488.273
3245 3244 3246 1 107.800 276.144
3245 3244 3247 1 110.700 313.800
3246 3244 3247 1 110.700 313.800
3244 3247 3248 1 110.700 313.800
3244 3247 3249 1 110.700 313.800
3244 3247 3250 1 112.700 488.273
3248 3247 3249 1 107.800 276.144
3248 3247 3250 1 110.700 313.800
3249 3247 3250 1 110.700 313.800
3247 3250 3251 1 110.700 313.800
3247 3250 3252 1 110.700 313.800
3247 3250 3253 1 112.700 488.273
3251 3250 3252 1 107.800 276.144
3251 3250 3253 1 110.700 313.800
3252 3250 3253 1 110.700 313.800
3250 3253 3254 1 110.700 313.800
3250 3253 3255 1 110.700 313.800
3250 3253 3256 1 112.700 488.273
3254 3253 3255 1 107.800 276.144
3254 3253 3256 1 110.700 313.800
3255 3253 3256 1 110.700 313.800
3253 3256 3257 1 110.700 313.800
3253 3256 3258 1 110.700 313.800
3253 3256 3259 1 112.700 488.273
3257 3256 3258 1 107.800 276.144
3257 3256 3259 1 110.700 313.800
3258 3256 3259 1 110.700 313.800
3256 3259 3260 1 110.700 313.800
3256 3259 3261 1 110.700 313.800
3256 3259 3262 1 110.700 313.800
3260 3259 3261 1 107.800 276.144
3260 3259 3262 1 107.800 276.144
3261 3259 3262 1 107.800 276.144
3263 3264 3265 1 107.800 276.144
3263 3264 3266 1 107.800 276.144
3263 3264 3267 1 109.500 292.880
3265 3264 3266 1 107.800 276.144
3265 3264 3267 1 109.500 292.880
3266 3264 3267 1 109.500 292.880
3202 3267 3264 1 112.700000 488.273000
3202 3267 3268 1 112.700000 488.273000
3202 3267 3271 1 112.700000 488.273000
3264 3267 3268 1 124.000 585.760
3264 3267 3271 1 119.700 585.760
3268 3267 3271 1 120.700 711.280
3267 3268 3269 1 120.000 292.880
3267 3268 3270 1 120.000 292.880
3267 3268 3303 1 112.700000 488.273000
3269 3268 3270 1 117.000 292.880
3269 3268 3303 1 110.700000 313.800000
3270 3268 3303 1 110.700000 313.800000
3267 3271 3272 1 125.300 669.440
3267 3271 3273 1 111.400 677.808
3272 3271 3273 1 123.400 694.544
3271 3273 3274 1 116.900 694.544
3273 3274 3275 1 109.500 292.880
3273 3274 3276 1 109.500 292.880
3273 3274 3277 1 109.500 418.400
3275 3274 3276 1 107.800 276.144
3275 3274 3277 1 110.700 313.800
3276 3274 3277 1 110.700 313.800
3274 3277 3278 1 110.700 313.800
3274 3277 3279 1 112.700 488.273
3274 3277 3286 1 112.700 488.273
3278 3277 3279 1 110.700 313.800
3278 3277 3286 1 110.700 313.800
3279 3277 3286 1 112.700 488.273
3277 3279 3280 1 110.700 313.800
3277 3279 3281 1 110.700 313.800
3277 3279 3282 1 112.700 488.273
3280 3279 3281 1 107.800 276.144
3280 3279 3282 1 110.700 313.800
3281 3279 3282 1 110.700 313.800
3279 3282 3283 1 110.700 313.800
3279 3282 3284 1 110.700 313.800
3279 3282 3285 1 110.700 313.800
3283 3282 3284 1 107.800 276.144
3283 3282 3285 1 107.800 276.144
3284 3282 3285 1 107.800 276.144
3277 3286 3287 1 110.700 313.800
3277 3286 3288 1 110.700 313.800
3277 3286 3289 1 112.700 488.273
3287 3286 3288 1 107.800 276.144
3287 3286 3289 1 110.700 313.800
3288 3286 3289 1 110.700 313.800
3286 3289 3290 1 110.700 313.800
3286 3289 3291 1 110.700 313.800
3286 3289 3292 1 112.700 488.273
3290 3289 3291 1 107.800 276.144
3290 3289 3292 1 110.700 313.800
3291 3289 3292 1 110.700 313.800
3289 3292 3293 1 110.700 313.800
3289 3292 3294 1 110.700 313.800
3289 3292 3295 1 112.700 488.273
3293 3292 3294 1 107.800 276.144
3293 3292 3295 1 110.700 313.800
3294 3292 3295 1 110.700 313.800
3292 3295 3296 1 110.700 313.800
3292 3295 3297 1 110.700 313.800
3292 3295 3298 1 110.700 313.800
3296 3295 3297 1 107.800 276.144
3296 3295 3298 1 107.800 276.144
3297 3295 3298 1 107.800 276.144
3299 3300 3301 1 107.800 276.144
3299 3300 3302 1 107.800 276.144
3299 3300 3303 1 109.500 292.880
3301 3300 3302 1 107.800 276.144
3301 3300 3303 1 109.500 292.880
3302 3300 3303 1 109.500 292.880
3268 3303 3300 1 112.700000 488.273000
3268 3303 3304 1 112.700000 488.273000
3268 3303 3307 1 112.700000 488.273000
3300 3303 3304 1 124.000 585.760
3300 3303 3307 1 119.700 585.760
3304 3303 3307 1 120.700 711.280
3303 3304 3305 1 120.000 292.880
3303 3304 3306 1 120.000 292.880
3303 3304 3351 1 112.700000 488.273000
3305 3304 3306 1 117.000 292.880
3305 3304 3351 1 110.700000 313.800000
3306 3304 3351 1 110.700000 313.800000
3303 3307 3308 1 125.300 669.440
3303 3307 3309 1 111.400 677.808
3308 3307 3309 1 123.400 694.544
3307 3309 3310 1 116.900 694.544
3309 3310 3311 1 109.500 292.880
3309 3310 3312 1 109.500 292.880
3309 3310 3313 1 109.500 418.400
3311 3310 3312 1 107.800 276.144
3311 3310 3313 1 110.700 313.800
3312 3310 3313 1 110.700 313.800
3310 3313 3314 1 110.700 313.800
3310 3313 3315 1 110.700 313.800
3310 3313 3316 1 112.700 488.273
3314 3313 3315 1 107.800 276.144
3314 3313 3316 1 110.700 313.800
3315 3313 3316 1 110.700 313.800
3313 3316 3317 1 110.700 313.800
3313 3316 3318 1 110.700 313.800
3313 3316 3319 1 112.700 488.273
3317 3316 3318 1 107.800 276.144
3317 3316 3319 1 110.700 313.800
3318 3316 3319 1 110.700 313.800
3316 3319 3320 1 110.700 313.800
3316 3319 3321 1 110.700 313.800
3316 3319 3322 1 112.700 488.273
3320 3319 3321 1 107.800 276.144
3320 3319 3322 1 110.700 313.800
3321 3319 3322 1 110.700 313.800
3319 3322 3323 1 110.700 313.800
3319 3322 3324 1 110.700 313.800
3319 3322 3325 1 112.700 488.273
3323 3322 3324 1 107.800 276.144
3323 3322 3325 1 110.700 313.800
3324 3322 3325 1 110.700 313.800
3322 3325 3326 1 110.700 313.800
3322 3325 3327 1 110.700 313.800
3322 3325 3328 1 112.700 488.273
3326 3325 3327 1 107.800 276.144
3326 3325 3328 1 110.700 313.800
3327 3325 3328 1 110.700 313.800
3325 3328 3329 1 110.700 313.800
3325 3328 3330 1 110.700 313.800
3325 3328 3331 1 112.700 488.273
3329 3328 3330 1 107.800 276.144
3329 3328 3331 1 110.700 313.800
3330 3328 3331 1 110.700 313.800
3328 3331 3332 1 110.700 313.800
3328 3331 3333 1 110.700 313.800
3328 3331 3334 1 112.700 488.273
3332 3331 3333 1 107.800 276.144
3332 3331 3334 1 110.700 313.800
3333 3331 3334 1 110.700 313.800
3331 3334 3335 1 110.700 313.800
3331 3334 3336 1 110.700 313.800
3331 3334 3337 1 112.700 488.273
3335 3334 3336 1 107.800 276.144
3335 3334 3337 1 110.700 313.800
3336 3334 3337 1 110.700 313.800
3334 3337 3338 1 110.700 313.800
3334 3337 3339 1 110.700 313.800
3334 3337 3340 1 112.700 488.273
3338 3337 3339 1 107.800 276.144
3338 3337 3340 1 110.700 313.800
3339 3337 3340 1 110.700 313.800
3337 3340 3341 1 110.700 313.800
3337 3340 3342 1 110.700 313.800
3337 3340 3343 1 112.700 488.273
3341 3340 3342 1 107.800 276.144
3341 3340 3343 1 110.700 313.800
3342 3340 3343 1 110.700 313.800
3340 3343 3344 1 110.700 313.800
3340 3343 3345 1 110.700 313.800
3340 3343 3346 1 110.700 313.800
3344 3343 3345 1 107.800 276.144
3344 3343 3346 1 107.800 276.144
3345 3343 3346 1 107.800 276.144
3347 3348 3349 1 107.800 276.144
3347 3348 3350 1 107.800 276.144
3347 3348 3351 1 109.500 292.880
3349 3348 3350 1 107.800 276.144
3349 3348 3351 1 109.500 292.880
3350 3348 3351 1 109.500 292.880
3304 3351 3348 1 112.700000 488.273000
3304 3351 3352 1 112.700000 488.273000
3304 3351 3355 1 112.700000 488.273000
3348 3351 3352 1 124.000 585.760
3348 3351 3355 1 119.700 585.760
3352 3351 3355 1 120.700 711.280
3351 3352 3353 1 120.000 292.880
3351 3352 3354 1 120.000 292.880
3351 3352 3417 1 112.700000 488.273000
3353 3352 3354 1 117.000 292.880
3353 3352 3417 1 110.700000 313.800000
3354 3352 3417 1 110.700000 313.800000
3351 3355 3356 1 125.300 669.440
3351 3355 3357 1 111.400 677.808
3356 3355 3357 1 123.400 694.544
3355 3357 3358 1 116.900 694.544
3357 3358 3359 1 109.500 292.880
3357 3358 3360 1 109.500 292.880
3357 3358 3361 1 109.500 418.400
3359 3358 3360 1 107.800 276.144
3359 3358 3361 1 110.700 313.800
3360 3358 3361 1 110.700 313.800
3358 3361 3362 1 110.700 313.800
3358 3361 3363 1 110.700 313.800
3358 3361 3364 1 112.700 488.273
3362 3361 3363 1 107.800 276.144
3362 3361 3364 1 110.700 313.800
3363 3361 3364 1 110.700 313.800
3361 3364 3365 1 110.700 313.800
3361 3364 3366 1 110.700 313.800
3361 3364 3367 1 112.700 488.273
3365 3364 3366 1 107.800 276.144
3365 3364 3367 1 110.700 313.800
3366 3364 3367 1 110.700 313.800
3364 3367 3368 1 110.700 313.800
3364 3367 3369 1 110.700 313.800
3364 3367 3370 1 112.700 488.273
3368 3367 3369 1 107.800 276.144
3368 3367 3370 1 110.700 313.800
3369 3367 3370 1 110.700 313.800
3367 3370 3371 1 110.700 313.800
3367 3370 3372 1 110.700 313.800
3367 3370 3373 1 112.700 488.273
3371 3370 3372 1 107.800 276.144
3371 3370 3373 1 110.700 313.800
3372 3370 3373 1 110.700 313.800
3370 3373 3374 1 110.700 313.800
3370 3373 3375 1 110.700 313.800
3370 3373 3376 1 112.700 488.273
3374 3373 3375 1 107.800 276.144
3374 3373 3376 1 110.700 313.800
3375 3373 3376 1 110.700 313.800
3373 3376 3377 1 110.700 313.800
3373 3376 3378 1 110.700 313.800
3373 3376 3379 1 112.700 488.273
3377 3376 3378 1 107.800 276.144
3377 3376 3379 1 110.700 313.800
3378 3376 3379 1 110.700 313.800
3376 3379 3380 1 110.700 313.800
3376 3379 3381 1 110.700 313.800
3376 3379 3382 1 112.700 488.273
3380 3379 3381 1 107.800 276.144
3380 3379 3382 1 110.700 313.800
3381 3379 3382 1 110.700 313.800
3379 3382 3383 1 110.700 313.800
3379 3382 3384 1 110.700 313.800
3379 3382 3385 1 112.700 488.273
3383 3382 3384 1 107.800 276.144
3383 3382 3385 1 110.700 313.800
3384 3382 3385 1 110.700 313.800
3382 3385 3386 1 110.700 313.800
3382 3385 3387 1 110.700 313.800
3382 3385 3388 1 112.700 488.273
3386 3385 3387 1 107.800 276.144
3386 3385 3388 1 110.700 313.800
3387 3385 3388 1 110.700 313.800
3385 3388 3389 1 110.700 313.800
3385 3388 3390 1 110.700 313.800
3385 3388 3391 1 112.700 488.273
3389 3388 3390 1 107.800 276.144
3389 3388 3391 1 110.700 313.800
3390 3388 3391 1 110.700 313.800
3388 3391 3392 1 110.700 313.800
3388 3391 3393 1 110.700 313.800
3388 3391 3394 1 112.700 488.273
3392 3391 3393 1 107.800 276.144
3392 3391 3394 1 110.700 313.800
3393 3391 3394 1 110.700 313.800
3391 3394 3395 1 110.700 313.800
3391 3394 3396 1 110.700 313.800
3391 3394 3397 1 112.700 488.273
3395 3394 3396 1 107.800 276.144
3395 3394 3397 1 110.700 313.800
3396 3394 3397 1 110.700 313.800
3394 3397 3398 1 110.700 313.800
3394 3397 3399 1 110.700 313.800
3394 3397 3400 1 112.700 488.273
3398 3397 3399 1 107.800 276.144
3398 3397 3400 1 110.700 313.800
3399 3397 3400 1 110.700 313.800
3397 3400 3401 1 110.700 313.800
3397 3400 3402 1 110.700 313.800
3397 3400 3403 1 112.700 488.273
3401 3400 3402 1 107.800 276.144
3401 3400 3403 1 110.700 313.800
3402 3400 3403 1 110.700 313.800
3400 3403 3404 1 110.700 313.800
3400 3403 3405 1 110.700 313.800
3400 3403 3406 1 112.700 488.273
3404 3403 3405 1 107.800 276.144
3404 3403 3406 1 110.700 313.800
3405 3403 3406 1 110.700 313.800
3403 3406 3407 1 110.700 313.800
3403 3406 3408 1 110.700 313.800
3403 3406 3409 1 112.700 488.273
3407 3406 3408 1 107.800 276.144
3407 3406 3409 1 110.700 313.800
3408 3406 3409 1 110.700 313.800
3406 3409 3410 1 110.700 313.800
3406 3409 3411 1 110.700 313.800
3406 3409 3412 1 110.700 313.800
3410 3409 3411 1 107.800 276.144
3410 3409 3412 1 107.800 276.144
3411 3409 3412 1 107.800 276.144
3413 3414 3415 1 107.800 276.144
3413 3414 3416 1 107.800 276.144
3413 3414 3417 1 109.500 292.880
3415 3414 3416 1 107.800 276.144
3415 3414 3417 1 109.500 292.880
3416 3414 3417 1 109.500 292.880
3352 3417 3414 1 112.700000 488.273000
3352 3417 3418 1 112.700000 488.273000
3352 3417 3421 1 112.700000 488.273000
3414 3417 3418 1 124.000 585.760
3414 3417 3421 1 119.700 585.760
3418 3417 3421 1 120.700 711.280
3417 3418 3419 1 120.000 292.880
3417 3418 3420 1 120.000 292.880
3417 3418 3453 1 112.700000 488.273000
3419 3418 3420 1 117.000 292.880
3419 3418 3453 1 110.700000 313.800000
3420 3418 3453 1 110.700000 313.800000
3417 3421 3422 1 125.300 669.440
3417 3421 3423 1 111.400 677.808
3422 3421 3423 1 123.400 694.544
3421 3423 3424 1 116.900 694.544
3423 3424 3425 1 109.500 292.880
3423 3424 3426 1 109.500 292.880
3423 3424 3427 1 109.500 418.400
3425 3424 3426 1 107.800 276.144
3425 3424 3427 1 110.700 313.800
3426 3424 3427 1 110.700 313.800
3424 3427 3428 1 110.700 313.800
3424 3427 3429 1 112.700 488.273
3424 3427 3436 1 112.700 488.273
3428 3427 3429 1 110.700 313.800
3428 3427 3436 1 110.700 313.800
3429 3427 3436 1 112.700 488.273
3427 3429 3430 1 110.700 313.800
3427 3429 3431 1 110.700 313.800
3427 3429 3432 1 112.700 488.273
3430 3429 3431 1 107.800 276.144
3430 3429 3432 1 110.700 313.800
3431 3429 3432 1 110.700 313.800
3429 3432 3433 1 110.700 313.800
3429 3432 3434 1 110.700 313.800
3429 3432 3435 1 110.700 313.800
3433 3432 3434 1 107.800 276.144
3433 3432 3435 1 107.800 276.144
3434 3432 3435 1 107.800 276.144
3427 3436 3437 1 110.700 313.800
3427 3436 3438 1 110.700 313.800
3427 3436 3439 1 112.700 488.273
3437 3436 3438 1 107.800 276.144
3437 3436 3439 1 110.700 313.800
3438 3436 3439 1 110.700 313.800
3436 3439 3440 1 110.700 313.800
3436 3439 3441 1 110.700 313.800
3436 3439 3442 1 112.700 488.273
3440 3439 3441 1 107.800 276.144
3440 3439 3442 1 110.700 313.800
3441 3439 3442 1 110.700 313.800
3439 3442 3443 1 110.700 313.800
3439 3442 3444 1 110.700 313.800
3439 3442 3445 1 112.700 488.273
3443 3442 3444 1 107.800 276.144
3443 3442 3445 1 110.700 313.800
3444 3442 3445 1 110.700 313.800
3442 3445 3446 1 110.700 313.800
3442 3445 3447 1 110.700 313.800
3442 3445 3448 1 110.700 313.800
3446 3445 3447 1 107.800 276.144
3446 3445 3448 1 107.800 276.144
3447 3445 3448 1 107.800 276.144
3449 3450 3451 1 107.800 276.144
3449 3450 3452 1 107.800 276.144
3449 3450 3453 1 109.500 292.880
3451 3450 3452 1 107.800 276.144
3451 3450 3453 1 109.500 292.880
3452 3450 3453 1 109.500 292.880
3418 3453 3450 1 112.700000 488.273000
3418 3453 3454 1 112.700000 488.273000
3418 3453 3457 1 112.700000 488.273000
3450 3453 3454 1 124.000 585.760
3450 3453 3457 1 119.700 585.760
3454 3453 3457 1 120.700 711.280
3453 3454 3455 1 120.000 292.880
3453 3454 3456 1 120.000 292.880
3453 3454 3501 1 112.700000 488.273000
3455 3454 3456 1 117.000 292.880
3455 3454 3501 1 110.700000 313.800000
3456 3454 3501 1 110.700000 313.800000
3453 3457 3458 1 125.300 669.440
3453 3457 3459 1 111.400 677.808
3458 3457 3459 1 123.400 694.544
3457 3459 3460 1 116.900 694.544
3459 3460 3461 1 109.500 292.880
3459 3460 3462 1 109.500 292.880
3459 3460 3463 1 109.500 418.400
3461 3460 3462 1 107.800 276.144
3461 3460 3463 1 110.700 313.800
3462 3460 3463 1 110.700 313.800
3460 3463 3464 1 110.700 313.800
3460 3463 3465 1 110.700 313.800
3460 3463 3466 1 112.700 488.273
3464 3463 3465 1 107.800 276.144
3464 3463 3466 1 110.700 313.800
3465 3463 3466 1 110.700 313.800
3463 3466 3467 1 110.700 313.800
3463 3466 3468 1 110.700 313.800
3463 3466 3469 1 112.700 488.273
3467 3466 3468 1 107.800 276.144
3467 3466 3469 1 110.700 313.800
3468 3466 3469 1 110.700 313.800
3466 3469 3470 1 110.700 313.800
3466 3469 3471 1 110.700 313.800
3466 3469 3472 1 112.700 488.273
3470 3469 3471 1 107.800 276.144
3470 3469 3472 1 110.700 313.800
3471 3469 3472 1 110.700 313.800
3469 3472 3473 1 110.700 313.800
3469 3472 3474 1 110.700 313.800
3469 3472 3475 1 112.700 488.273
3473 3472 3474 1 107.800 276.144
3473 3472 3475 1 110.700 313.800
3474 3472 3475 1 110.700 313.800
3472 3475 3476 1 110.700 313.800
3472 3475 3477 1 110.700 313.800
3472 3475 3478 1 112.700 488.273
3476 3475 3477 1 107.800 276.144
3476 3475 3478 1 110.700 313.800
3477 3475 3478 1 110.700 313.800
3475 3478 3479 1 110.700 313.800
3475 3478 3480 1 110.700 313.800
3475 3478 3481 1 112.700 488.273
3479 3478 3480 1 107.800 276.144
3479 3478 3481 1 110.700 313.800
3480 3478 3481 1 110.700 313.800
3478 3481 3482 1 110.700 313.800
3478 3481 3483 1 110.700 313.800
3478 3481 3484 1 112.700 488.273
3482 3481 3483 1 107.800 276.144
3482 3481 3484 1 110.700 313.800
3483 3481 3484 1 110.700 313.800
3481 3484 3485 1 110.700 313.800
3481 3484 3486 1 110.700 313.800
3481 3484 3487 1 112.700 488.273
3485 3484 3486 1 107.800 276.144
3485 3484 3487 1 110.700 313.800
3486 3484 3487 1 110.700 313.800
3484 3487 3488 1 110.700 313.800
3484 3487 3489 1 110.700 313.800
3484 3487 3490 1 112.700 488.273
3488 3487 3489 1 107.800 276.144
3488 3487 3490 1 110.700 313.800
3489 3487 3490 1 110.700 313.800
3487 3490 3491 1 110.700 313.800
3487 3490 3492 1 110.700 313.800
3487 3490 3493 1 112.700 488.273
3491 3490 3492 1 107.800 276.144
3491 3490 3493 1 110.700 313.800
3492 3490 3493 1 110.700 313.800
3490 3493 3494 1 110.700 313.800
3490 3493 3495 1 110.700 313.800
3490 3493 3496 1 110.700 313.800
3494 3493 3495 1 107.800 276.144
3494 3493 3496 1 107.800 276.144
3495 3493 3496 1 107.800 276.144
3497 3498 3499 1 107.800 276.144
3497 3498 3500 1 107.800 276.144
3497 3498 3501 1 109.500 292.880
3499 3498 3500 1 107.800 276.144
3499 3498 3501 1 109.500 292.880
3500 3498 3501 1 109.500 292.880
3454 3501 3498 1 112.700000 488.273000
3454 3501 3502 1 112.700000 488.273000
3454 3501 3505 1 112.700000 488.273000
3498 3501 3502 1 124.000 585.760
3498 3501 3505 1 119.700 585.760
3502 3501 3505 1 120.700 711.280
3501 3502 3503 1 120.000 292.880
3501 3502 3504 1 120.000 292.880
3501 3502 3537 1 112.700000 488.273000
3503 3502 3504 1 117.000 292.880
3503 3502 3537 1 110.700000 313.800000
3504 3502 3537 1 110.700000 313.800000
3501 3505 3506 1 125.300 669.440
3501 3505 3507 1 111.400 677.808
3506 3505 3507 1 123.400 694.544
3505 3507 3508 1 116.900 694.544
3507 3508 3509 1 109.500 292.880
3507 3508 3510 1 109.500 292.880
3507 3508 3511 1 109.500 418.400
3509 3508 3510 1 107.800 276.144
3509 3508 3511 1 110.700 313.800
3510 3508 3511 1 110.700 313.800
3508 3511 3512 1 110.700 313.800
3508 3511 3513 1 112.700 488.273
3508 3511 3520 1 112.700 488.273
3512 3511 3513 1 110.700 313.800
3512 3511 3520 1 110.700 313.800
3513 3511 3520 1 112.700 488.273
3511 3513 3514 1 110.700 313.800
3511 3513 3515 1 110.700 313.800
3511 3513 3516 1 112.700 488.273
3514 3513 3515 1 107.800 276.144
3514 3513 3516 1 110.700 313.800
3515 3513 3516 1 110.700 313.800
3513 3516 3517 1 110.700 313.800
3513 3516 3518 1 110.700 313.800
3513 3516 3519 1 110.700 313.800
3517 3516 3518 1 107.800 276.144
3517 3516 3519 1 107.800 276.144
3518 3516 3519 1 107.800 276.144
3511 3520 3521 1 110.700 313.800
3511 3520 3522 1 110.700 313.800
3511 3520 3523 1 112.700 488.273
3521 3520 3522 1 107.800 276.144
3521 3520 3523 1 110.700 313.800
3522 3520 3523 1 110.700 313.800
3520 3523 3524 1 110.700 313.800
3520 3523 3525 1 110.700 313.800
3520 3523 3526 1 112.700 488.273
3524 3523 3525 1 107.800 276.144
3524 3523 3526 1 110.700 313.800
3525 3523 3526 1 110.700 313.800
3523 3526 3527 1 110.700 313.800
3523 3526 3528 1 110.700 313.800
3523 3526 3529 1 112.700 488.273
3527 3526 3528 1 107.800 276.144
3527 3526 3529 1 110.700 313.800
3528 3526 3529 1 110.700 313.800
3526 3529 3530 1 110.700 313.800
3526 3529 3531 1 110.700 313.800
3526 3529 3532 1 110.700 313.800
3530 3529 3531 1 107.800 276.144
3530 3529 3532 1 107.800 276.144
3531 3529 3532 1 107.800 276.144
3533 3534 3535 1 107.800 276.144
3533 3534 3536 1 107.800 276.144
3533 3534 3537 1 109.500 292.880
3535 3534 3536 1 107.800 276.144
3535 3534 3537 1 109.500 292.880
3536 3534 3537 1 109.500 292.880
3502 3537 3534 1 112.700000 488.273000
3502 3537 3538 1 112.700000 488.273000
3502 3537 3541 1 112.700000 488.273000
3534 3537 3538 1 124.000 585.760
3534 3537 3541 1 119.700 585.760
3538 3537 3541 1 120.700 711.280
3537 3538 3539 1 120.000 292.880
3537 3538 3540 1 120.000 292.880
3537 3538 3573 1 112.700000 488.273000
3539 3538 3540 1 117.000 292.880
3539 3538 3573 1 110.700000 313.800000
3540 3538 3573 1 110.700000 313.800000
3537 3541 3542 1 125.300 669.440
3537 3541 3543 1 111.400 677.808
3542 3541 3543 1 123.400 694.544
3541 3543 3544 1 116.900 694.544
3543 3544 3545 1 109.500 292.880
3543 3544 3546 1 109.500 292.880
3543 3544 3547 1 109.500 418.400
3545 3544 3546 1 107.800 276.144
3545 3544 3547 1 110.700 313.800
3546 3544 3547 1 110.700 313.800
3544 3547 3548 1 110.700 313.800
3544 3547 3549 1 112.700 488.273
3544 3547 3556 1 112.700 488.273
3548 3547 3549 1 110.700 313.800
3548 3547 3556 1 110.700 313.800
3549 3547 3556 1 112.700 488.273
3547 3549 3550 1 110.700 313.800
3547 3549 3551 1 110.700 313.800
3547 3549 3552 1 112.700 488.273
3550 3549 3551 1 107.800 276.144
3550 3549 3552 1 110.700 313.800
3551 3549 3552 1 110.700 313.800
3549 3552 3553 1 110.700 313.800
3549 3552 3554 1 110.700 313.800
3549 3552 3555 1 110.700 313.800
3553 3552 3554 1 107.800 276.144
3553 3552 3555 1 107.800 276.144
3554 3552 3555 1 107.800 276.144
3547 3556 3557 1 110.700 313.800
3547 3556 3558 1 110.700 313.800
3547 3556 3559 1 112.700 488.273
3557 3556 3558 1 107.800 276.144
3557 3556 3559 1 110.700 313.800
3558 3556 3559 1 110.700 313.800
3556 3559 3560 1 110.700 313.800
3556 3559 3561 1 110.700 313.800
3556 3559 3562 1 112.700 488.273
3560 3559 3561 1 107.800 276.144
3560 3559 3562 1 110.700 313.800
3561 3559 3562 1 110.700 313.800
3559 3562 3563 1 110.700 313.800
3559 3562 3564 1 110.700 313.800
3559 3562 3565 1 112.700 488.273
3563 3562 3564 1 107.800 276.144
3563 3562 3565 1 110.700 313.800
3564 3562 3565 1 110.700 313.800
3562 3565 3566 1 110.700 313.800
3562 3565 3567 1 110.700 313.800
3562 3565 3568 1 110.700 313.800
3566 3565 3567 1 107.800 276.144
3566 3565 3568 1 107.800 276.144
3567 3565 3568 1 107.800 276.144
3569 3570 3571 1 107.800 276.144
3569 3570 3572 1 107.800 276.144
3569 3570 3573 1 109.500 292.880
3571 3570 3572 1 107.800 276.144
3571 3570 3573 1 109.500 292.880
3572 3570 3573 1 109.500 292.880
3538 3573 3570 1 112.700000 488.273000
3538 3573 3574 1 112.700000 488.273000
3538 3573 3577 1 112.700000 488.273000
3570 3573 3574 1 124.000 585.760
3570 3573 3577 1 119.700 585.760
3574 3573 3577 1 120.700 711.280
3573 3574 3575 1 120.000 292.880
3573 3574 3576 1 120.000 292.880
3573 3574 3609 1 112.700000 488.273000
3575 3574 3576 1 117.000 292.880
3575 3574 3609 1 110.700000 313.800000
3576 3574 3609 1 110.700000 313.800000
3573 3577 3578 1 125.300 669.440
3573 3577 3579 1 111.400 677.808
3578 3577 3579 1 123.400 694.544
3577 3579 3580 1 116.900 694.544
3579 3580 3581 1 109.500 292.880
3579 3580 3582 1 109.500 292.880
3579 3580 3583 1 109.500 418.400
3581 3580 3582 1 107.800 276.144
3581 3580 3583 1 110.700 313.800
3582 3580 3583 1 110.700 313.800
3580 3583 3584 1 110.700 313.800
3580 3583 3585 1 112.700 488.273
3580 3583 3592 1 112.700 488.273
3584 3583 3585 1 110.700 313.800
3584 3583 3592 1 110.700 313.800
3585 3583 3592 1 112.700 488.273
3583 3585 3586 1 110.700 313.800
3583 3585 3587 1 110.700 313.800
3583 3585 3588 1 112.700 488.273
3586 3585 3587 1 107.800 276.144
3586 3585 3588 1 110.700 313.800
3587 3585 3588 1 110.700 313.800
3585 3588 3589 1 110.700 313.800
3585 3588 3590 1 110.700 313.800
3585 3588 3591 1 110.700 313.800
3589 3588 3590 1 107.800 276.144
3589 3588 3591 1 107.800 276.144
3590 3588 3591 1 107.800 276.144
3583 3592 3593 1 110.700 313.800
3583 3592 3594 1 110.700 313.800
3583 3592 3595 1 112.700 488.273
3593 3592 3594 1 107.800 276.144
3593 3592 3595 1 110.700 313.800
3594 3592 3595 1 110.700 313.800
3592 3595 3596 1 110.700 313.800
3592 3595 3597 1 110.700 313.800
3592 3595 3598 1 112.700 488.273
3596 3595 3597 1 107.800 276.144
3596 3595 3598 1 110.700 313.800
3597 3595 3598 1 110.700 313.800
3595 3598 3599 1 110.700 313.800
3595 3598 3600 1 110.700 313.800
3595 3598 3601 1 112.700 488.273
3599 3598 3600 1 107.800 276.144
3599 3598 3601 1 110.700 313.800
3600 3598 3601 1 110.700 313.800
3598 3601 3602 1 110.700 313.800
3598 3601 3603 1 110.700 313.800
3598 3601 3604 1 110.700 313.800
3602 3601 3603 1 107.800 276.144
3602 3601 3604 1 107.800 276.144
3603 3601 3604 1 107.800 276.144
3605 3606 3607 1 107.800 276.144
3605 3606 3608 1 107.800 276.144
3605 3606 3609 1 109.500 292.880
3607 3606 3608 1 107.800 276.144
3607 3606 3609 1 109.500 292.880
3608 3606 3609 1 109.500 292.880
3574 3609 3606 1 112.700000 488.273000
3574 3609 3610 1 112.700000 488.273000
3574 3609 3613 1 112.700000 488.273000
3606 3609 3610 1 124.000 585.760
3606 3609 3613 1 119.700 585.760
3610 3609 3613 1 120.700 711.280
3609 3610 3611 1 120.000 292.880
3609 3610 3612 1 120.000 292.880
3609 3610 3657 1 112.700000 488.273000
3611 3610 3612 1 117.000 292.880
3611 3610 3657 1 110.700000 313.800000
3612 3610 3657 1 110.700000 313.800000
3609 3613 3614 1 125.300 669.440
3609 3613 3615 1 111.400 677.808
3614 3613 3615 1 123.400 694.544
3613 3615 3616 1 116.900 694.544
3615 3616 3617 1 109.500 292.880
3615 3616 3618 1 109.500 292.880
3615 3616 3619 1 109.500 418.400
3617 3616 3618 1 107.800 276.144
3617 3616 3619 1 110.700 313.800
3618 3616 3619 1 110.700 313.800
3616 3619 3620 1 110.700 313.800
3616 3619 3621 1 110.700 313.800
3616 3619 3622 1 112.700 488.273
3620 3619 3621 1 107.800 276.144
3620 3619 3622 1 110.700 313.800
3621 3619 3622 1 110.700 313.800
3619 3622 3623 1 110.700 313.800
3619 3622 3624 1 110.700 313.800
3619 3622 3625 1 112.700 488.273
3623 3622 3624 1 107.800 276.144
3623 3622 3625 1 110.700 313.800
3624 3622 3625 1 110.700 313.800
3622 3625 3626 1 110.700 313.800
3622 3625 3627 1 110.700 313.800
3622 3625 3628 1 112.700 488.273
3626 3625 3627 1 107.800 276.144
3626 3625 3628 1 110.700 313.800
3627 3625 3628 1 110.700 313.800
3625 3628 3629 1 110.700 313.800
3625 3628 3630 1 110.700 313.800
3625 3628 3631 1 112.700 488.273
3629 3628 3630 1 107.800 276.144
3629 3628 3631 1 110.700 313.800
3630 3628 3631 1 110.700 313.800
3628 3631 3632 1 110.700 313.800
3628 3631 3633 1 110.700 313.800
3628 3631 3634 1 112.700 488.273
3632 3631 3633 1 107.800 276.144
3632 3631 3634 1 110.700 313.800
3633 3631 3634 1 110.700 313.800
3631 3634 3635 1 110.700 313.800
3631 3634 3636 1 110.700 313.800
3631 3634 3637 1 112.700 488.273
3635 3634 3636 1 107.800 276.144
3635 3634 3637 1 110.700 313.800
3636 3634 3637 1 110.700 313.800
3634 3637 3638 1 110.700 313.800
3634 3637 3639 1 110.700 313.800
3634 3637 3640 1 112.700 488.273
3638 3637 3639 1 107.800 276.144
3638 3637 3640 1 110.700 313.800
3639 3637 3640 1 110.700 313.800
3637 3640 3641 1 110.700 313.800
3637 3640 3642 1 110.700 313.800
3637 3640 3643 1 112.700 488.273
3641 3640 3642 1 107.800 276.144
3641 3640 3643 1 110.700 313.800
3642 3640 3643 1 110.700 313.800
3640 3643 3644 1 110.700 313.800
3640 3643 3645 1 110.700 313.800
3640 3643 3646 1 112.700 488.273
3644 3643 3645 1 107.800 276.144
3644 3643 3646 1 110.700 313.800
3645 3643 3646 1 110.700 313.800
3643 3646 3647 1 110.700 313.800
3643 3646 3648 1 110.700 313.800
3643 3646 3649 1 112.700 488.273
3647 3646 3648 1 107.800 276.144
3647 3646 3649 1 110.700 313.800
3648 3646 3649 1 110.700 313.800
3646 3649 3650 1 110.700 313.800
3646 3649 3651 1 110.700 313.800
3646 3649 3652 1 110.700 313.800
3650 3649 3651 1 107.800 276.144
3650 3649 3652 1 107.800 276.144
3651 3649 3652 1 107.800 276.144
3653 3654 3655 1 107.800 276.144
3653 3654 3656 1 107.800 276.144
3653 3654 3657 1 109.500 292.880
3655 3654 3656 1 107.800 276.144
3655 3654 3657 1 109.500 292.880
3656 3654 3657 1 109.500 292.880
3610 3657 3654 1 112.700000 488.273000
3610 3657 3658 1 112.700000 488.273000
3610 3657 3661 1 112.700000 488.273000
3654 3657 3658 1 124.000 585.760
3654 3657 3661 1 119.700 585.760
3658 3657 3661 1 120.700 711.280
3657 3658 3659 1 120.000 292.880
3657 3658 3660 1 120.000 292.880
3657 3658 3723 1 112.700000 488.273000
3659 3658 3660 1 117.000 292.880
3659 3658 3723 1 110.700000 313.800000
3660 3658 3723 1 110.700000 313.800000
3657 3661 3662 1 125.300 669.440
3657 3661 3663 1 111.400 677.808
3662 3661 3663 1 123.400 694.544
3661 3663 3664 1 116.900 694.544
3663 3664 3665 1 109.500 292.880
3663 3664 3666 1 109.500 292.880
3663 3664 3667 1 109.500 418.400
3665 3664 3666 1 107.800 276.144
3665 3664 3667 1 110.700 313.800
3666 3664 3667 1 110.700 313.800
3664 3667 3668 1 110.700 313.800
3664 3667 3669 1 110.700 313.800
3664 3667 3670 1 112.700 488.273
3668 3667 3669 1 107.800 276.144
3668 3667 3670 1 110.700 313.800
3669 3667 3670 1 110.700 313.800
3667 3670 3671 1 110.700 313.800
3667 3670 3672 1 110.700 313.800
3667 3670 3673 1 112.700 488.273
3671 3670 3672 1 107.800 276.144
3671 3670 3673 1 110.700 313.800
3672 3670 3673 1 110.700 313.800
3670 3673 3674 1 110.700 313.800
3670 3673 3675 1 110.700 313.800
3670 3673 3676 1 112.700 488.273
3674 3673 3675 1 107.800 276.144
3674 3673 3676 1 110.700 313.800
3675 3673 3676 1 110.700 313.800
3673 3676 3677 1 110.700 313.800
3673 3676 3678 1 110.700 313.800
3673 3676 3679 1 112.700 488.273
3677 3676 3678 1 107.800 276.144
3677 3676 3679 1 110.700 313.800
3678 3676 3679 1 110.700 313.800
3676 3679 3680 1 110.700 313.800
3676 3679 3681 1 110.700 313.800
3676 3679 3682 1 112.700 488.273
3680 3679 3681 1 107.800 276.144
3680 3679 3682 1 110.700 313.800
3681 3679 3682 1 110.700 313.800
3679 3682 3683 1 110.700 313.800
3679 3682 3684 1 110.700 313.800
3679 3682 3685 1 112.700 488.273
3683 3682 3684 1 107.800 276.144
3683 3682 3685 1 110.700 313.800
3684 3682 3685 1 110.700 313.800
3682 3685 3686 1 110.700 313.800
3682 3685 3687 1 110.700 313.800
3682 3685 3688 1 112.700 488.273
3686 3685 3687 1 107.800 276.144
3686 3685 3688 1 110.700 313.800
3687 3685 3688 1 110.700 313.800
3685 3688 3689 1 110.700 313.800
3685 3688 3690 1 110.700 313.800
3685 3688 3691 1 112.700 488.273
3689 3688 3690 1 107.800 276.144
3689 3688 3691 1 110.700 313.800
3690 3688 3691 1 110.700 313.800
3688 3691 3692 1 110.700 313.800
3688 3691 3693 1 110.700 313.800
3688 3691 3694 1 112.700 488.273
3692 3691 3693 1 107.800 276.144
3692 3691 3694 1 110.700 313.800
3693 3691 3694 1 110.700 313.800
3691 3694 3695 1 110.700 313.800
3691 3694 3696 1 110.700 313.800
3691 3694 3697 1 112.700 488.273
3695 3694 3696 1 107.800 276.144
3695 3694 3697 1 110.700 313.800
3696 3694 3697 1 110.700 313.800
3694 3697 3698 1 110.700 313.800
3694 3697 3699 1 110.700 313.800
3694 3697 3700 1 112.700 488.273
3698 3697 3699 1 107.800 276.144
3698 3697 3700 1 110.700 313.800
3699 3697 3700 1 110.700 313.800
3697 3700 3701 1 110.700 313.800
3697 3700 3702 1 110.700 313.800
3697 3700 3703 1 112.700 488.273
3701 3700 3702 1 107.800 276.144
3701 3700 3703 1 110.700 313.800
3702 3700 3703 1 110.700 313.800
3700 3703 3704 1 110.700 313.800
3700 3703 3705 1 110.700 313.800
3700 3703 3706 1 112.700 488.273
3704 3703 3705 1 107.800 276.144
3704 3703 3706 1 110.700 313.800
3705 3703 3706 1 110.700 313.800
3703 3706 3707 1 110.700 313.800
3703 3706 3708 1 110.700 313.800
3703 3706 3709 1 112.700 488.273
3707 3706 3708 1 107.800 276.144
3707 3706 3709 1 110.700 313.800
3708 3706 3709 1 110.700 313.800
3706 3709 3710 1 110.700 313.800
3706 3709 3711 1 110.700 313.800
3706 3709 3712 1 112.700 488.273
3710 3709 3711 1 107.800 276.144
3710 3709 3712 1 110.700 313.800
3711 3709 3712 1 110.700 313.800
3709 3712 3713 1 110.700 313.800
3709 3712 3714 1 110.700 313.800
3709 3712 3715 1 112.700 488.273
3713 3712 3714 1 107.800 276.144
3713 3712 3715 1 110.700 313.800
3714 3712 3715 1 110.700 313.800
3712 3715 3716 1 110.700 313.800
3712 3715 3717 1 110.700 313.800
3712 3715 3718 1 110.700 313.800
3716 3715 3717 1 107.800 276.144
3716 3715 3718 1 107.800 276.144
3717 3715 3718 1 107.800 276.144
3719 3720 3721 1 107.800 276.144
3719 3720 3722 1 107.800 276.144
3719 3720 3723 1 109.500 292.880
3721 3720 3722 1 107.800 276.144
3721 3720 3723 1 109.500 292.880
3722 3720 3723 1 109.500 292.880
3658 3723 3720 1 112.700000 488.273000
3658 3723 3724 1 112.700000 488.273000
3658 3723 3727 1 112.700000 488.273000
3720 3723 3724 1 124.000 585.760
3720 3723 3727 1 119.700 585.760
3724 3723 3727 1 120.700 711.280
3723 3724 3725 1 120.000 292.880
3723 3724 3726 1 120.000 292.880
3723 3724 3759 1 112.700000 488.273000
3725 3724 3726 1 117.000 292.880
3725 3724 3759 1 110.700000 313.800000
3726 3724 3759 1 110.700000 313.800000
3723 3727 3728 1 125.300 669.440
3723 3727 3729 1 111.400 677.808
3728 3727 3729 1 123.400 694.544
3727 3729 3730 1 116.900 694.544
3729 3730 3731 1 109.500 292.880
3729 3730 3732 1 109.500 292.880
3729 3730 3733 1 109.500 418.400
3731 3730 3732 1 107.800 276.144
3731 3730 3733 1 110.700 313.800
3732 3730 3733 1 110.700 313.800
3730 3733 3734 1 110.700 313.800
3730 3733 3735 1 112.700 488.273
3730 3733 3742 1 112.700 488.273
3734 3733 3735 1 110.700 313.800
3734 3733 3742 1 110.700 313.800
3735 3733 3742 1 112.700 488.273
3733 3735 3736 1 110.700 313.800
3733 3735 3737 1 110.700 313.800
3733 3735 3738 1 112.700 488.273
3736 3735 3737 1 107.800 276.144
3736 3735 3738 1 110.700 313.800
3737 3735 3738 1 110.700 313.800
3735 3738 3739 1 110.700 313.800
3735 3738 3740 1 110.700 313.800
3735 3738 3741 1 110.700 313.800
3739 3738 3740 1 107.800 276.144
3739 3738 3741 1 107.800 276.144
3740 3738 3741 1 107.800 276.144
3733 3742 3743 1 110.700 313.800
3733 3742 3744 1 110.700 313.800
3733 3742 3745 1 112.700 488.273
3743 3742 3744 1 107.800 276.144
3743 3742 3745 1 110.700 313.800
3744 3742 3745 1 110.700 313.800
3742 3745 3746 1 110.700 313.800
3742 3745 3747 1 110.700 313.800
3742 3745 3748 1 112.700 488.273
3746 3745 3747 1 107.800 276.144
3746 3745 3748 1 110.700 313.800
3747 3745 3748 1 110.700 313.800
3745 3748 3749 1 110.700 313.800
3745 3748 3750 1 110.700 313.800
3745 3748 3751 1 112.700 488.273
3749 3748 3750 1 107.800 276.144
3749 3748 3751 1 110.700 313.800
3750 3748 3751 1 110.700 313.800
3748 3751 3752 1 110.700 313.800
3748 3751 3753 1 110.700 313.800
3748 3751 3754 1 110.700 313.800
3752 3751 3753 1 107.800 276.144
3752 3751 3754 1 107.800 276.144
3753 3751 3754 1 107.800 276.144
3755 3756 3757 1 107.800 276.144
3755 3756 3758 1 107.800 276.144
3755 3756 3759 1 109.500 292.880
3757 3756 3758 1 107.800 276.144
3757 3756 3759 1 109.500 292.880
3758 3756 3759 1 109.500 292.880
3724 3759 3756 1 112.700000 488.273000
3724 3759 3760 1 112.700000 488.273000
3724 3759 3763 1 112.700000 488.273000
3756 3759 3760 1 124.000 585.760
3756 3759 3763 1 119.700 585.760
3760 3759 3763 1 120.700 711.280
3759 3760 3761 1 120.000 292.880
3759 3760 3762 1 120.000 292.880
3759 3760 3795 1 112.700000 488.273000
3761 3760 3762 1 117.000 292.880
3761 3760 3795 1 110.700000 313.800000
3762 3760 3795 1 110.700000 313.800000
3759 3763 3764 1 125.300 669.440
3759 3763 3765 1 111.400 677.808
3764 3763 3765 1 123.400 694.544
3763 3765 3766 1 116.900 694.544
3765 3766 3767 1 109.500 292.880
3765 3766 3768 1 109.500 292.880
3765 3766 3769 1 109.500 418.400
3767 3766 3768 1 107.800 276.144
3767 3766 3769 1 110.700 313.800
3768 3766 3769 1 110.700 313.800
3766 3769 3770 1 110.700 313.800
3766 3769 3771 1 112.700 488.273
3766 3769 3778 1 112.700 488.273
3770 3769 3771 1 110.700 313.800
3770 3769 3778 1 110.700 313.800
3771 3769 3778 1 112.700 488.273
3769 3771 3772 1 110.700 313.800
3769 3771 3773 1 110.700 313.800
3769 3771 3774 1 112.700 488.273
3772 3771 3773 1 107.800 276.144
3772 3771 3774 1 110.700 313.800
3773 3771 3774 1 110.700 313.800
3771 3774 3775 1 110.700 313.800
3771 3774 3776 1 110.700 313.800
3771 3774 3777 1 110.700 313.800
3775 3774 3776 1 107.800 276.144
3775 3774 3777 1 107.800 276.144
3776 3774 3777 1 107.800 276.144
3769 3778 3779 1 110.700 313.800
3769 3778 3780 1 110.700 313.800
3769 3778 3781 1 112.700 488.273
3779 3778 3780 1 107.800 276.144
3779 3778 3781 1 110.700 313.800
3780 3778 3781 1 110.700 313.800
3778 3781 3782 1 110.700 313.800
3778 3781 3783 1 110.700 313.800
3778 3781 3784 1 112.700 488.273
3782 3781 3783 1 107.800 276.144
3782 3781 3784 1 110.700 313.800
3783 3781 3784 1 110.700 313.800
3781 3784 3785 1 110.700 313.800
3781 3784 3786 1 110.700 313.800
3781 3784 3787 1 112.700 488.273
3785 3784 3786 1 107.800 276.144
3785 3784 3787 1 110.700 313.800
3786 3784 3787 1 110.700 313.800
3784 3787 3788 1 110.700 313.800
3784 3787 3789 1 110.700 313.800
3784 3787 3790 1 110.700 313.800
3788 3787 3789 1 107.800 276.144
3788 3787 3790 1 107.800 276.144
3789 3787 3790 1 107.800 276.144
3791 3792 3793 1 107.800 276.144
3791 3792 3794 1 107.800 276.144
3791 3792 3795 1 109.500 292.880
3793 3792 3794 1 107.800 276.144
3793 3792 3795 1 109.500 292.880
3794 3792 3795 1 109.500 292.880
3760 3795 3792 1 112.700000 488.273000
3760 3795 3796 1 112.700000 488.273000
3760 3795 3799 1 112.700000 488.273000
3792 3795 3796 1 124.000 585.760
3792 3795 3799 1 119.700 585.760
3796 3795 3799 1 120.700 711.280
3795 3796 3797 1 120.000 292.880
3795 3796 3798 1 120.000 292.880
3795 3796 3843 1 112.700000 488.273000
3797 3796 3798 1 117.000 292.880
3797 3796 3843 1 110.700000 313.800000
3798 3796 3843 1 110.700000 313.800000
3795 3799 3800 1 125.300 669.440
3795 3799 3801 1 111.400 677.808
3800 3799 3801 1 123.400 694.544
3799 3801 3802 1 116.900 694.544
3801 3802 3803 1 109.500 292.880
3801 3802 3804 1 109.500 292.880
3801 3802 3805 1 109.500 418.400
3803 3802 3804 1 107.800 276.144
3803 3802 3805 1 110.700 313.800
3804 3802 3805 1 110.700 313.800
3802 3805 3806 1 110.700 313.800
3802 3805 3807 1 110.700 313.800
3802 3805 3808 1 112.700 488.273
3806 3805 3807 1 107.800 276.144
3806 3805 3808 1 110.700 313.800
3807 3805 3808 1 110.700 313.800
3805 3808 3809 1 110.700 313.800
3805 3808 3810 1 110.700 313.800
3805 3808 3811 1 112.700 488.273
3809 3808 3810 1 107.800 276.144
3809 3808 3811 1 110.700 313.800
3810 3808 3811 1 110.700 313.800
3808 3811 3812 1 110.700 313.800
3808 3811 3813 1 110.700 313.800
3808 3811 3814 1 112.700 488.273
3812 3811 3813 1 107.800 276.144
3812 3811 3814 1 110.700 313.800
3813 3811 3814 1 110.700 313.800
3811 3814 3815 1 110.700 313.800
3811 3814 3816 1 110.700 313.800
3811 3814 3817 1 112.700 488.273
3815 3814 3816 1 107.800 276.144
3815 3814 3817 1 110.700 313.800
3816 3814 3817 1 110.700 313.800
3814 3817 3818 1 110.700 313.800
3814 3817 3819 1 110.700 313.800
3814 3817 3820 1 112.700 488.273
3818 3817 3819 1 107.800 276.144
3818 3817 3820 1 110.700 313.800
3819 3817 3820 1 110.700 313.800
3817 3820 3821 1 110.700 313.800
3817 3820 3822 1 110.700 313.800
3817 3820 3823 1 112.700 488.273
3821 3820 3822 1 107.800 276.144
3821 3820 3823 1 110.700 313.800
3822 3820 3823 1 110.700 313.800
3820 3823 3824 1 110.700 313.800
3820 3823 3825 1 110.700 313.800
3820 3823 3826 1 112.700 488.273
3824 3823 3825 1 107.800 276.144
3824 3823 3826 1 110.700 313.800
3825 3823 3826 1 110.700 313.800
3823 3826 3827 1 110.700 313.800
3823 3826 3828 1 110.700 313.800
3823 3826 3829 1 112.700 488.273
3827 3826 3828 1 107.800 276.144
3827 3826 3829 1 110.700 313.800
3828 3826 3829 1 110.700 313.800
3826 3829 3830 1 110.700 313.800
3826 3829 3831 1 110.700 313.800
3826 3829 3832 1 112.700 488.273
3830 3829 3831 1 107.800 276.144
3830 3829 3832 1 110.700 313.800
3831 3829 3832 1 110.700 313.800
3829 3832 3833 1 110.700 313.800
3829 3832 3834 1 110.700 313.800
3829 3832 3835 1 112.700 488.273
3833 3832 3834 1 107.800 276.144
3833 3832 3835 1 110.700 313.800
3834 3832 3835 1 110.700 313.800
3832 3835 3836 1 110.700 313.800
3832 3835 3837 1 110.700 313.800
3832 3835 3838 1 110.700 313.800
3836 3835 3837 1 107.800 276.144
3836 3835 3838 1 107.800 276.144
3837 3835 3838 1 107.800 276.144
3839 3840 3841 1 107.800 276.144
3839 3840 3842 1 107.800 276.144
3839 3840 3843 1 109.500 292.880
3841 3840 3842 1 107.800 276.144
3841 3840 3843 1 109.500 292.880
3842 3840 3843 1 109.500 292.880
3796 3843 3840 1 112.700000 488.273000
3796 3843 3844 1 112.700000 488.273000
3796 3843 3847 1 112.700000 488.273000
3840 3843 3844 1 124.000 585.760
3840 3843 3847 1 119.700 585.760
3844 3843 3847 1 120.700 711.280
3843 3844 3845 1 120.000 292.880
3843 3844 3846 1 120.000 292.880
3843 3844 3879 1 112.700000 488.273000
3845 3844 3846 1 117.000 292.880
3845 3844 3879 1 110.700000 313.800000
3846 3844 3879 1 110.700000 313.800000
3843 3847 3848 1 125.300 669.440
3843 3847 3849 1 111.400 677.808
3848 3847 3849 1 123.400 694.544
3847 3849 3850 1 116.900 694.544
3849 3850 3851 1 109.500 292.880
3849 3850 3852 1 109.500 292.880
3849 3850 3853 1 109.500 418.400
3851 3850 3852 1 107.800 276.144
3851 3850 3853 1 110.700 313.800
3852 3850 3853 1 110.700 313.800
3850 3853 3854 1 110.700 313.800
3850 3853 3855 1 112.700 488.273
3850 3853 3862 1 112.700 488.273
3854 3853 3855 1 110.700 313.800
3854 3853 3862 1 110.700 313.800
3855 3853 3862 1 112.700 488.273
3853 3855 3856 1 110.700 313.800
3853 3855 3857 1 110.700 313.800
3853 3855 3858 1 112.700 488.273
3856 3855 3857 1 107.800 276.144
3856 3855 3858 1 110.700 313.800
3857 3855 3858 1 110.700 313.800
3855 3858 3859 1 110.700 313.800
3855 3858 3860 1 110.700 313.800
3855 3858 3861 1 110.700 313.800
3859 3858 3860 1 107.800 276.144
3859 3858 3861 1 107.800 276.144
3860 3858 3861 1 107.800 276.144
3853 3862 3863 1 110.700 313.800
3853 3862 3864 1 110.700 313.800
3853 3862 3865 1 112.700 488.273
3863 3862 3864 1 107.800 276.144
3863 3862 3865 1 110.700 313.800
3864 3862 3865 1 110.700 313.800
3862 3865 3866 1 110.700 313.800
3862 3865 3867 1 110.700 313.800
3862 3865 3868 1 112.700 488.273
3866 3865 3867 1 107.800 276.144
3866 3865 3868 1 110.700 313.800
3867 3865 3868 1 110.700 313.800
3865 3868 3869 1 110.700 313.800
3865 3868 3870 1 110.700 313.800
3865 3868 3871 1 112.700 488.273
3869 3868 3870 1 107.800 276.144
3869 3868 3871 1 110.700 313.800
3870 3868 3871 1 110.700 313.800
3868 3871 3872 1 110.700 313.800
3868 3871 3873 1 110.700 313.800
3868 3871 3874 1 110.700 313.800
3872 3871 3873 1 107.800 276.144
3872 3871 3874 1 107.800 276.144
3873 3871 3874 1 107.800 276.144
3875 3876 3877 1 107.800 276.144
3875 3876 3878 1 107.800 276.144
3875 3876 3879 1 109.500 292.880
3877 3876 3878 1 107.800 276.144
3877 3876 3879 1 109.500 292.880
3878 3876 3879 1 109.500 292.880
3844 3879 3876 1 112.700000 488.273000
3844 3879 3880 1 112.700000 488.273000
3844 3879 3883 1 112.700000 488.273000
3876 3879 3880 1 124.000 585.760
3876 3879 3883 1 119.700 585.760
3880 3879 3883 1 120.700 711.280
3879 3880 3881 1 120.000 292.880
3879 3880 3882 1 120.000 292.880
3879 3880 3927 1 112.700000 488.273000
3881 3880 3882 1 117.000 292.880
3881 3880 3927 1 110.700000 313.800000
3882 3880 3927 1 110.700000 313.800000
3879 3883 3884 1 125.300 669.440
3879 3883 3885 1 111.400 677.808
3884 3883 3885 1 123.400 694.544
3883 3885 3886 1 116.900 694.544
3885 3886 3887 1 109.500 292.880
3885 3886 3888 1 109.500 292.880
3885 3886 3889 1 109.500 418.400
3887 3886 3888 1 107.800 276.144
3887 3886 3889 1 110.700 313.800
3888 3886 3889 1 110.700 313.800
3886 3889 3890 1 110.700 313.800
3886 3889 3891 1 110.700 313.800
3886 3889 3892 1 112.700 488.273
3890 3889 3891 1 107.800 276.144
3890 3889 3892 1 110.700 313.800
3891 3889 3892 1 110.700 313.800
3889 3892 3893 1 110.700 313.800
3889 3892 3894 1 110.700 313.800
3889 3892 3895 1 112.700 488.273
3893 3892 3894 1 107.800 276.144
3893 3892 3895 1 110.700 313.800
3894 3892 3895 1 110.700 313.800
3892 3895 3896 1 110.700 313.800
3892 3895 3897 1 110.700 313.800
3892 3895 3898 1 112.700 488.273
3896 3895 3897 1 107.800 276.144
3896 3895 3898 1 110.700 313.800
3897 3895 3898 1 110.700 313.800
3895 3898 3899 1 110.700 313.800
3895 3898 3900 1 110.700 313.800
3895 3898 3901 1 112.700 488.273
3899 3898 3900 1 107.800 276.144
3899 3898 3901 1 110.700 313.800
3900 3898 3901 1 110.700 313.800
3898 3901 3902 1 110.700 313.800
3898 3901 3903 1 110.700 313.800
3898 3901 3904 1 112.700 488.273
3902 3901 3903 1 107.800 276.144
3902 3901 3904 1 110.700 313.800
3903 3901 3904 1 110.700 313.800
3901 3904 3905 1 110.700 313.800
3901 3904 3906 1 110.700 313.800
3901 3904 3907 1 112.700 488.273
3905 3904 3906 1 107.800 276.144
3905 3904 3907 1 110.700 313.800
3906 3904 3907 1 110.700 313.800
3904 3907 3908 1 110.700 313.800
3904 3907 3909 1 110.700 313.800
3904 3907 3910 1 112.700 488.273
3908 3907 3909 1 107.800 276.144
3908 3907 3910 1 110.700 313.800
3909 3907 3910 1 110.700 313.800
3907 3910 3911 1 110.700 313.800
3907 3910 3912 1 110.700 313.800
3907 3910 3913 1 112.700 488.273
3911 3910 3912 1 107.800 276.144
3911 3910 3913 1 110.700 313.800
3912 3910 3913 1 110.700 313.800
3910 3913 3914 1 110.700 313.800
3910 3913 3915 1 110.700 313.800
3910 3913 3916 1 112.700 488.273
3914 3913 3915 1 107.800 276.144
3914 3913 3916 1 110.700 313.800
3915 3913 3916 1 110.700 313.800
3913 3916 3917 1 110.700 313.800
3913 3916 3918 1 110.700 313.800
3913 3916 3919 1 112.700 488.273
3917 3916 3918 1 107.800 276.144
3917 3916 3919 1 110.700 313.800
3918 3916 3919 1 110.700 313.800
3916 3919 3920 1 110.700 313.800
3916 3919 3921 1 110.700 313.800
3916 3919 3922 1 110.700 313.800
3920 3919 3921 1 107.800 276.144
3920 3919 3922 1 107.800 276.144
3921 3919 3922 1 107.800 276.144
3923 3924 3925 1 107.800 276.144
3923 3924 3926 1 107.800 276.144
3923 3924 3927 1 109.500 292.880
3925 3924 3926 1 107.800 276.144
3925 3924 3927 1 109.500 292.880
3926 3924 3927 1 109.500 292.880
3880 3927 3924 1 112.700000 488.273000
3880 3927 3928 1 112.700000 488.273000
3880 3927 3931 1 112.700000 488.273000
3924 3927 3928 1 124.000 585.760
3924 3927 3931 1 119.700 585.760
3928 3927 3931 1 120.700 711.280
3927 3928 3929 1 120.000 292.880
3927 3928 3930 1 120.000 292.880
3927 3928 3975 1 112.700000 488.273000
3929 3928 3930 1 117.000 292.880
3929 3928 3975 1 110.700000 313.800000
3930 3928 3975 1 110.700000 313.800000
3927 3931 3932 1 125.300 669.440
3927 3931 3933 1 111.400 677.808
3932 3931 3933 1 123.400 694.544
3931 3933 3934 1 116.900 694.544
3933 3934 3935 1 109.500 292.880
3933 3934 3936 1 109.500 292.880
3933 3934 3937 1 109.500 418.400
3935 3934 3936 1 107.800 276.144
3935 3934 3937 1 110.700 313.800
3936 3934 3937 1 110.700 313.800
3934 3937 3938 1 110.700 313.800
3934 3937 3939 1 110.700 313.800
3934 3937 3940 1 112.700 488.273
3938 3937 3939 1 107.800 276.144
3938 3937 3940 1 110.700 313.800
3939 3937 3940 1 110.700 313.800
3937 3940 3941 1 110.700 313.800
3937 3940 3942 1 110.700 313.800
3937 3940 3943 1 112.700 488.273
3941 3940 3942 1 107.800 276.144
3941 3940 3943 1 110.700 313.800
3942 3940 3943 1 110.700 313.800
3940 3943 3944 1 110.700 313.800
3940 3943 3945 1 110.700 313.800
3940 3943 3946 1 112.700 488.273
3944 3943 3945 1 107.800 276.144
3944 3943 3946 1 110.700 313.800
3945 3943 3946 1 110.700 313.800
3943 3946 3947 1 110.700 313.800
3943 3946 3948 1 110.700 313.800
3943 3946 3949 1 112.700 488.273
3947 3946 3948 1 107.800 276.144
3947 3946 3949 1 110.700 313.800
3948 3946 3949 1 110.700 313.800
3946 3949 3950 1 110.700 313.800
3946 3949 3951 1 110.700 313.800
3946 3949 3952 1 112.700 488.273
3950 3949 3951 1 107.800 276.144
3950 3949 3952 1 110.700 313.800
3951 3949 3952 1 110.700 313.800
3949 3952 3953 1 110.700 313.800
3949 3952 3954 1 110.700 313.800
3949 3952 3955 1 112.700 488.273
3953 3952 3954 1 107.800 276.144
3953 3952 3955 1 110.700 313.800
3954 3952 3955 1 110.700 313.800
3952 3955 3956 1 110.700 313.800
3952 3955 3957 1 110.700 313.800
3952 3955 3958 1 112.700 488.273
3956 3955 3957 1 107.800 276.144
3956 3955 3958 1 110.700 313.800
3957 3955 3958 1 110.700 313.800
3955 3958 3959 1 110.700 313.800
3955 3958 3960 1 110.700 313.800
3955 3958 3961 1 112.700 488.273
3959 3958 3960 1 107.800 276.144
3959 3958 3961 1 110.700 313.800
3960 3958 3961 1 110.700 313.800
3958 3961 3962 1 110.700 313.800
3958 3961 3963 1 110.700 313.800
3958 3961 3964 1 112.700 488.273
3962 3961 3963 1 107.800 276.144
3962 3961 3964 1 110.700 313.800
3963 3961 3964 1 110.700 313.800
3961 3964 3965 1 110.700 313.800
3961 3964 3966 1 110.700 313.800
3961 3964 3967 1 112.700 488.273
3965 3964 3966 1 107.800 276.144
3965 3964 3967 1 110.700 313.800
3966 3964 3967 1 110.700 313.800
3964 3967 3968 1 110.700 313.800
3964 3967 3969 1 110.700 313.800
3964 3967 3970 1 110.700 313.800
3968 3967 3969 1 107.800 276.144
3968 3967 3970 1 107.800 276.144
3969 3967 3970 1 107.800 276.144
3971 3972 3973 1 107.800 276.144
3971 3972 3974 1 107.800 276.144
3971 3972 3975 1 109.500 292.880
3973 3972 3974 1 107.800 276.144
3973 3972 3975 1 109.500 292.880
3974 3972 3975 1 109.500 292.880
3928 3975 3972 1 112.700000 488.273000
3928 3975 3976 1 112.700000 488.273000
3928 3975 3979 1 112.700000 488.273000
3972 3975 3976 1 124.000 585.760
3972 3975 3979 1 119.700 585.760
3976 3975 3979 1 120.700 711.280
3975 3976 3977 1 120.000 292.880
3975 3976 3978 1 120.000 292.880
3975 3976 4011 1 112.700000 488.273000
3977 3976 3978 1 117.000 292.880
3977 3976 4011 1 110.700000 313.800000
3978 3976 4011 1 110.700000 313.800000
3975 3979 3980 1 125.300 669.440
3975 3979 3981 1 111.400 677.808
3980 3979 3981 1 123.400 694.544
3979 3981 3982 1 116.900 694.544
3981 3982 3983 1 109.500 292.880
3981 3982 3984 1 109.500 292.880
3981 3982 3985 1 109.500 418.400
3983 3982 3984 1 107.800 276.144
3983 3982 3985 1 110.700 313.800
3984 3982 3985 1 110.700 313.800
3982 3985 3986 1 110.700 313.800
3982 3985 3987 1 112.700 488.273
3982 3985 3994 1 112.700 488.273
3986 3985 3987 1 110.700 313.800
3986 3985 3994 1 110.700 313.800
3987 3985 3994 1 112.700 488.273
3985 3987 3988 1 110.700 313.800
3985 3987 3989 1 110.700 313.800
3985 3987 3990 1 112.700 488.273
3988 3987 3989 1 107.800 276.144
3988 3987 3990 1 110.700 313.800
3989 3987 3990 1 110.700 313.800
3987 3990 3991 1 110.700 313.800
3987 3990 3992 1 110.700 313.800
3987 3990 3993 1 110.700 313.800
3991 3990 3992 1 107.800 276.144
3991 3990 3993 1 107.800 276.144
3992 3990 3993 1 107.800 276.144
3985 3994 3995 1 110.700 313.800
3985 3994 3996 1 110.700 313.800
3985 3994 3997 1 112.700 488.273
3995 3994 3996 1 107.800 276.144
3995 3994 3997 1 110.700 313.800
3996 3994 3997 1 110.700 313.800
3994 3997 3998 1 110.700 313.800
3994 3997 3999 1 110.700 313.800
3994 3997 4000 1 112.700 488.273
3998 3997 3999 1 107.800 276.144
3998 3997 4000 1 110.700 313.800
3999 3997 4000 1 110.700 313.800
3997 4000 4001 1 110.700 313.800
3997 4000 4002 1 110.700 313.800
3997 4000 4003 1 112.700 488.273
4001 4000 4002 1 107.800 276.144
4001 4000 4003 1 110.700 313.800
4002 4000 4003 1 110.700 313.800
4000 4003 4004 1 110.700 313.800
4000 4003 4005 1 110.700 313.800
4000 4003 4006 1 110.700 313.800
4004 4003 4005 1 107.800 276.144
4004 4003 4006 1 107.800 276.144
4005 4003 4006 1 107.800 276.144
4007 4008 4009 1 107.800 276.144
4007 4008 4010 1 107.800 276.144
4007 4008 4011 1 109.500 292.880
4009 4008 4010 1 107.800 276.144
4009 4008 4011 1 109.500 292.880
4010 4008 4011 1 109.500 292.880
3976 4011 4008 1 112.700000 488.273000
3976 4011 4012 1 112.700000 488.273000
3976 4011 4015 1 112.700000 488.273000
4008 4011 4012 1 124.000 585.760
4008 4011 4015 1 119.700 585.760
4012 4011 4015 1 120.700 711.280
4011 4012 4013 1 120.000 292.880
4011 4012 4014 1 120.000 292.880
4011 4012 4077 1 112.700000 488.273000
4013 4012 4014 1 117.000 292.880
4013 4012 4077 1 110.700000 313.800000
4014 4012 4077 1 110.700000 313.800000
4011 4015 4016 1 125.300 669.440
4011 4015 4017 1 111.400 677.808
4016 4015 4017 1 123.400 694.544
4015 4017 4018 1 116.900 694.544
4017 4018 4019 1 109.500 292.880
4017 4018 4020 1 109.500 292.880
4017 4018 4021 1 109.500 418.400
4019 4018 4020 1 107.800 276.144
4019 4018 4021 1 110.700 313.800
4020 4018 4021 1 110.700 313.800
4018 4021 4022 1 110.700 313.800
4018 4021 4023 1 110.700 313.800
4018 4021 4024 1 112.700 488.273
4022 4021 4023 1 107.800 276.144
4022 4021 4024 1 110.700 313.800
4023 4021 4024 1 110.700 313.800
4021 4024 4025 1 110.700 313.800
4021 4024 4026 1 110.700 313.800
4021 4024 4027 1 112.700 488.273
4025 4024 4026 1 107.800 276.144
4025 4024 4027 1 110.700 313.800
4026 4024 4027 1 110.700 313.800
4024 4027 4028 1 110.700 313.800
4024 4027 4029 1 110.700 313.800
4024 4027 4030 1 112.700 488.273
4028 4027 4029 1 107.800 276.144
4028 4027 4030 1 110.700 313.800
4029 4027 4030 1 110.700 313.800
4027 4030 4031 1 110.700 313.800
4027 4030 4032 1 110.700 313.800
4027 4030 4033 1 112.700 488.273
4031 4030 4032 1 107.800 276.144
4031 4030 4033 1 110.700 313.800
4032 4030 4033 1 110.700 313.800
4030 4033 4034 1 110.700 313.800
4030 4033 4035 1 110.700 313.800
4030 4033 4036 1 112.700 488.273
4034 4033 4035 1 107.800 276.144
4034 4033 4036 1 110.700 313.800
4035 4033 4036 1 110.700 313.800
4033 4036 4037 1 110.700 313.800
4033 4036 4038 1 110.700 313.800
4033 4036 4039 1 112.700 488.273
4037 4036 4038 1 107.800 276.144
4037 4036 4039 1 110.700 313.800
4038 4036 4039 1 110.700 313.800
4036 4039 4040 1 110.700 313.800
4036 4039 4041 1 110.700 313.800
4036 4039 4042 1 112.700 488.273
4040 4039 4041 1 107.800 276.144
4040 4039 4042 1 110.700 313.800
4041 4039 4042 1 110.700 313.800
4039 4042 4043 1 110.700 313.800
4039 4042 4044 1 110.700 313.800
4039 4042 4045 1 112.700 488.273
4043 4042 4044 1 107.800 276.144
4043 4042 4045 1 110.700 313.800
4044 4042 4045 1 110.700 313.800
4042 4045 4046 1 110.700 313.800
4042 4045 4047 1 110.700 313.800
4042 4045 4048 1 112.700 488.273
4046 4045 4047 1 107.800 276.144
4046 4045 4048 1 110.700 313.800
4047 4045 4048 1 110.700 313.800
4045 4048 4049 1 110.700 313.800
4045 4048 4050 1 110.700 313.800
4045 4048 4051 1 112.700 488.273
4049 4048 4050 1 107.800 276.144
4049 4048 4051 1 110.700 313.800
4050 4048 4051 1 110.700 313.800
4048 4051 4052 1 110.700 313.800
4048 4051 4053 1 110.700 313.800
4048 4051 4054 1 112.700 488.273
4052 4051 4053 1 107.800 276.144
4052 4051 4054 1 110.700 313.800
4053 4051 4054 1 110.700 313.800
4051 4054 4055 1 110.700 313.800
4051 4054 4056 1 110.700 313.800
4051 4054 4057 1 112.700 488.273
4055 4054 4056 1 107.800 276.144
4055 4054 4057 1 110.700 313.800
4056 4054 4057 1 110.700 313.800
4054 4057 4058 1 110.700 313.800
4054 4057 4059 1 110.700 313.800
4054 4057 4060 1 112.700 488.273
4058 4057 4059 1 107.800 276.144
4058 4057 4060 1 110.700 313.800
4059 4057 4060 1 110.700 313.800
4057 4060 4061 1 110.700 313.800
4057 4060 4062 1 110.700 313.800
4057 4060 4063 1 112.700 488.273
4061 4060 4062 1 107.800 276.144
4061 4060 4063 1 110.700 313.800
4062 4060 4063 1 110.700 313.800
4060 4063 4064 1 110.700 313.800
4060 4063 4065 1 110.700 313.800
4060 4063 4066 1 112.700 488.273
4064 4063 4065 1 107.800 276.144
4064 4063 4066 1 110.700 313.800
4065 4063 4066 1 110.700 313.800
4063 4066 4067 1 110.700 313.800
4063 4066 4068 1 110.700 313.800
4063 4066 4069 1 112.700 488.273
4067 4066 4068 1 107.800 276.144
4067 4066 4069 1 110.700 313.800
4068 4066 4069 1 110.700 313.800
4066 4069 4070 1 110.700 313.800
4066 4069 4071 1 110.700 313.800
4066 4069 4072 1 110.700 313.800
4070 4069 4071 1 107.800 276.144
4070 4069 4072 1 107.800 276.144
4071 4069 4072 1 107.800 276.144
4073 4074 4075 1 107.800 276.144
4073 4074 4076 1 107.800 276.144
4073 4074 4077 1 109.500 292.880
4075 4074 4076 1 107.800 276.144
4075 4074 4077 1 109.500 292.880
4076 4074 4077 1 109.500 292.880
4012 4077 4074 1 112.700000 488.273000
4012 4077 4078 1 112.700000 488.273000
4012 4077 4081 1 112.700000 488.273000
4074 4077 4078 1 124.000 585.760
4074 4077 4081 1 119.700 585.760
4078 4077 4081 1 120.700 711.280
4077 4078 4079 1 120.000 292.880
4077 4078 4080 1 120.000 292.880
4077 4078 4125 1 112.700000 488.273000
4079 4078 4080 1 117.000 292.880
4079 4078 4125 1 110.700000 313.800000
4080 4078 4125 1 110.700000 313.800000
4077 4081 4082 1 125.300 669.440
4077 4081 4083 1 111.400 677.808
4082 4081 4083 1 123.400 694.544
4081 4083 4084 1 116.900 694.544
4083 4084 4085 1 109.500 292.880
4083 4084 4086 1 109.500 292.880
4083 4084 4087 1 109.500 418.400
4085 4084 4086 1 107.800 276.144
4085 4084 4087 1 110.700 313.800
4086 4084 4087 1 110.700 313.800
4084 4087 4088 1 110.700 313.800
4084 4087 4089 1 110.700 313.800
4084 4087 4090 1 112.700 488.273
4088 4087 4089 1 107.800 276.144
4088 4087 4090 1 110.700 313.800
4089 4087 4090 1 110.700 313.800
4087 4090 4091 1 110.700 313.800
4087 4090 4092 1 110.700 313.800
4087 4090 4093 1 112.700 488.273
4091 4090 4092 1 107.800 276.144
4091 4090 4093 1 110.700 313.800
4092 4090 4093 1 110.700 313.800
4090 4093 4094 1 110.700 313.800
4090 4093 4095 1 110.700 313.800
4090 4093 4096 1 112.700 488.273
4094 4093 4095 1 107.800 276.144
4094 4093 4096 1 110.700 313.800
4095 4093 4096 1 110.700 313.800
4093 4096 4097 1 110.700 313.800
4093 4096 4098 1 110.700 313.800
4093 4096 4099 1 112.700 488.273
4097 4096 4098 1 107.800 276.144
4097 4096 4099 1 110.700 313.800
4098 4096 4099 1 110.700 313.800
4096 4099 4100 1 110.700 313.800
4096 4099 4101 1 110.700 313.800
4096 4099 4102 1 112.700 488.273
4100 4099 4101 1 107.800 276.144
4100 4099 4102 1 110.700 313.800
4101 4099 4102 1 110.700 313.800
4099 4102 4103 1 110.700 313.800
4099 4102 4104 1 110.700 313.800
4099 4102 4105 1 112.700 488.273
4103 4102 4104 1 107.800 276.144
4103 4102 4105 1 110.700 313.800
4104 4102 4105 1 110.700 313.800
4102 4105 4106 1 110.700 313.800
4102 4105 4107 1 110.700 313.800
4102 4105 4108 1 112.700 488.273
4106 4105 4107 1 107.800 276.144
4106 4105 4108 1 110.700 313.800
4107 4105 4108 1 110.700 313.800
4105 4108 4109 1 110.700 313.800
4105 4108 4110 1 110.700 313.800
4105 4108 4111 1 112.700 488.273
4109 4108 4110 1 107.800 276.144
4109 4108 4111 1 110.700 313.800
4110 4108 4111 1 110.700 313.800
4108 4111 4112 1 110.700 313.800
4108 4111 4113 1 110.700 313.800
4108 4111 4114 1 112.700 488.273
4112 4111 4113 1 107.800 276.144
4112 4111 4114 1 110.700 313.800
4113 4111 4114 1 110.700 313.800
4111 4114 4115 1 110.700 313.800
4111 4114 4116 1 110.700 313.800
4111 4114 4117 1 112.700 488.273
4115 4114 4116 1 107.800 276.144
4115 4114 4117 1 110.700 313.800
4116 4114 4117 1 110.700 313.800
4114 4117 4118 1 110.700 313.800
4114 4117 4119 1 110.700 313.800
4114 4117 4120 1 110.700 313.800
4118 4117 4119 1 107.800 276.144
4118 4117 4120 1 107.800 276.144
4119 4117 4120 1 107.800 276.144
4121 4122 4123 1 107.800 276.144
4121 4122 4124 1 107.800 276.144
4121 4122 4125 1 109.500 292.880
4123 4122 4124 1 107.800 276.144
4123 4122 4125 1 109.500 292.880
4124 4122 4125 1 109.500 292.880
4078 4125 4122 1 112.700000 488.273000
4078 4125 4126 1 112.700000 488.273000
4078 4125 4129 1 112.700000 488.273000
4122 4125 4126 1 124.000 585.760
4122 4125 4129 1 119.700 585.760
4126 4125 4129 1 120.700 711.280
4125 4126 4127 1 120.000 292.880
4125 4126 4128 1 120.000 292.880
4125 4126 4187 1 112.700000 488.273000
4127 4126 4128 1 117.000 292.880
4127 4126 4187 1 110.700000 313.800000
4128 4126 4187 1 110.700000 313.800000
4125 4129 4130 1 125.300 669.440
4125 4129 4131 1 111.400 677.808
4130 4129 4131 1 123.400 694.544
4129 4131 4132 1 116.900 694.544
4131 4132 4133 1 109.500 292.880
4131 4132 4134 1 109.500 292.880
4131 4132 4135 1 109.500 418.400
4133 4132 4134 1 107.800 276.144
4133 4132 4135 1 110.700 313.800
4134 4132 4135 1 110.700 313.800
4132 4135 4136 1 110.700 313.800
4132 4135 4137 1 110.700 313.800
4132 4135 4138 1 112.700 488.273
4136 4135 4137 1 107.800 276.144
4136 4135 4138 1 110.700 313.800
4137 4135 4138 1 110.700 313.800
4135 4138 4139 1 110.700 313.800
4135 4138 4140 1 110.700 313.800
4135 4138 4141 1 112.700 488.273
4139 4138 4140 1 107.800 276.144
4139 4138 4141 1 110.700 313.800
4140 4138 4141 1 110.700 313.800
4138 4141 4142 1 110.700 313.800
4138 4141 4143 1 110.700 313.800
4138 4141 4144 1 112.700 488.273
4142 4141 4143 1 107.800 276.144
4142 4141 4144 1 110.700 313.800
4143 4141 4144 1 110.700 313.800
4141 4144 4145 1 110.700 313.800
4141 4144 4146 1 110.700 313.800
4141 4144 4147 1 112.700 488.273
4145 4144 4146 1 107.800 276.144
4145 4144 4147 1 110.700 313.800
4146 4144 4147 1 110.700 313.800
4144 4147 4148 1 110.700 313.800
4144 4147 4149 1 110.700 313.800
4144 4147 4150 1 112.700 488.273
4148 4147 4149 1 107.800 276.144
4148 4147 4150 1 110.700 313.800
4149 4147 4150 1 110.700 313.800
4147 4150 4151 1 110.700 313.800
4147 4150 4152 1 110.700 313.800
4147 4150 4153 1 112.700 488.273
4151 4150 4152 1 107.800 276.144
4151 4150 4153 1 110.700 313.800
4152 4150 4153 1 110.700 313.800
4150 4153 4154 1 110.700 313.800
4150 4153 4155 1 110.700 313.800
4150 4153 4156 1 112.700 488.273
4154 4153 4155 1 107.800 276.144
4154 4153 4156 1 110.700 313.800
4155 4153 4156 1 110.700 313.800
4153 4156 4157 1 110.700 313.800
4153 4156 4158 1 110.700 313.800
4153 4156 4159 1 112.700 488.273
4157 4156 4158 1 107.800 276.144
4157 4156 4159 1 110.700 313.800
4158 4156 4159 1 110.700 313.800
4156 4159 4160 1 110.700 313.800
4156 4159 4161 1 110.700 313.800
4156 4159 4162 1 112.700 488.273
4160 4159 4161 1 107.800 276.144
4160 4159 4162 1 110.700 313.800
4161 4159 4162 1 110.700 313.800
4159 4162 4163 1 110.700 313.800
4159 4162 4164 1 110.700 313.800
4159 4162 4165 1 112.700 488.273
4163 4162 4164 1 107.800 276.144
4163 4162 4165 1 110.700 313.800
4164 4162 4165 1 110.700 313.800
4162 4165 4166 1 110.700 313.800
4162 4165 4167 1 110.700 313.800
4162 4165 4168 1 112.700 488.273
4166 4165 4167 1 107.800 276.144
4166 4165 4168 1 110.700 313.800
4167 4165 4168 1 110.700 313.800
4165 4168 4169 1 110.700 313.800
4165 4168 4170 1 110.700 313.800
4165 4168 4171 1 112.700 488.273
4169 4168 4170 1 107.800 276.144
4169 4168 4171 1 110.700 313.800
4170 4168 4171 1 110.700 313.800
4168 4171 4172 1 110.700 313.800
4168 4171 4173 1 110.700 313.800
4168 4171 4174 1 112.700 488.273
4172 4171 4173 1 107.800 276.144
4172 4171 4174 1 110.700 313.800
4173 4171 4174 1 110.700 313.800
4171 4174 4175 1 110.700 313.800
4171 4174 4176 1 110.700 313.800
4171 4174 4177 1 112.700 488.273
4175 4174 4176 1 107.800 276.144
4175 4174 4177 1 110.700 313.800
4176 4174 4177 1 110.700 313.800
4174 4177 4178 1 110.700 313.800
4174 4177 4179 1 110.700 313.800
4174 4177 4180 1 112.700 488.273
4178 4177 4179 1 107.800 276.144
4178 4177 4180 1 110.700 313.800
4179 4177 4180 1 110.700 313.800
4177 4180 4181 1 110.700 313.800
4177 4180 4182 1 110.700 313.800
4177 4180 4183 1 112.700 488.273
4181 4180 4182 1 107.800 276.144
4181 4180 4183 1 110.700 313.800
4182 4180 4183 1 110.700 313.800
4180 4183 4184 1 110.700 313.800
4180 4183 4185 1 110.700 313.800
4180 4183 4186 1 110.700 313.800
4184 4183 4185 1 107.800 276.144
4184 4183 4186 1 107.800 276.144
4185 4183 4186 1 107.800 276.144
4126 4187 4188 1 110.700000 313.800000
4126 4187 4189 1 110.700000 313.800000
4126 4187 4190 1 110.700000 313.800000
4188 4187 4189 1 107.800 276.144
4188 4187 4190 1 107.800 276.144
4189 4187 4190 1 107.800 276.144

[ dihedrals ]
   1   12   13   14 3 0.627600 1.882800 0.000000 -2.510400 0.000000 0.000000
   1   12   13   15 3 0.627600 1.882800 0.000000 -2.510400 0.000000 0.000000
   1   12   13   27 3 2.928800 -1.464400 0.209200 -1.673600 0.000000 0.000000
   1   12   16   17 3 0.627600 1.882800 0.000000 -2.510400 0.000000 0.000000
   1   12   16   18 3 0.627600 1.882800 0.000000 -2.510400 0.000000 0.000000
   1   12   16   19 3 0.627600 1.882800 0.000000 -2.510400 0.000000 0.000000
   2    1   12   10 3 0.627600 1.882800 0.000000 -2.510400 0.000000 0.000000
   2    1   12   13 3 0.627600 1.882800 0.000000 -2.510400 0.000000 0.000000
   2    1   12   16 3 0.627600 1.882800 0.000000 -2.510400 0.000000 0.000000
   3    1   12   10 3 0.627600 1.882800 0.000000 -2.510400 0.000000 0.000000
   3    1   12   13 3 0.627600 1.882800 0.000000 -2.510400 0.000000 0.000000
   3    1   12   16 3 0.627600 1.882800 0.000000 -2.510400 0.000000 0.000000
   4    1   12   10 3 0.627600 1.882800 0.000000 -2.510400 0.000000 0.000000
   4    1   12   13 3 0.627600 1.882800 0.000000 -2.510400 0.000000 0.000000
   4    1   12   16 3 0.627600 1.882800 0.000000 -2.510400 0.000000 0.000000
   9   10   12    1 3 2.874410 0.581580 2.092000 -5.547990 0.000000 0.000000
  11   10   12    1 3 2.874410 0.581580 2.092000 -5.547990 0.000000 0.000000
   5    6    9   10 3 0.414 1.243 0.000 -1.657 -0.000 0.000
   6    9   10   11 3 21.439 0.000 -21.439 -0.000 -0.000 0.000
   6    9   10   12 3 31.206 -9.768 -21.439 -0.000 -0.000 0.000
   7    6    9   10 3 0.414 1.243 0.000 -1.657 -0.000 0.000
   8    6    9   10 3 0.414 1.243 0.000 -1.657 -0.000 0.000
   9   10   12   13 3 -5.858 -6.694 12.552 -0.000 -0.000 0.000
   9   10   12   16 3 1.789 -5.052 -0.962 4.226 -0.000 0.000
  11    9   10   12 4 180.000 43.932 2
  10   12   13   14 3 58.576 0.000 -58.576 -0.000 -0.000 0.000
  10   12   13   15 3 58.576 0.000 -58.576 -0.000 -0.000 0.000
  10   12   13   27 3 2.928800 -1.464400 0.209200 -1.673600 0.000000 0.000000
  10   12   16   17 3 -0.778 -2.335 0.000 3.113 -0.000 0.000
  10   12   16   18 3 -0.778 -2.335 0.000 3.113 -0.000 0.000
  10   12   16   19 3 -0.778 -2.335 0.000 3.113 -0.000 0.000
  11   10   12   13 3 30.334 -5.230 -25.104 -0.000 -0.000 0.000
  11   10   12   16 3 1.789 -5.052 -0.962 4.226 -0.000 0.000
  13   10   12   16 4 180.000 10.460 2
  12   13   27   25 3 2.928800 -1.464400 0.209200 -1.673600 0.000000 0.000000
  12   13   27   28 3 2.928800 -1.464400 0.209200 -1.673600 0.000000 0.000000
  12   13   27   31 3 2.928800 -1.464400 0.209200 -1.673600 0.000000 0.000000
  13   12   16   17 3 -0.778 -2.335 0.000 3.113 -0.000 0.000
  13   12   16   18 3 -0.778 -2.335 0.000 3.113 -0.000 0.000
  13   12   16   19 3 -0.778 -2.335 0.000 3.113 -0.000 0.000
  14   12   13   15 4 180.000 10.460 2
  16   12   13   14 3 58.576 0.000 -58.576 -0.000 -0.000 0.000
  16   12   13   15 3 58.576 0.000 -58.576 -0.000 -0.000 0.000
  16   12   13   27 3 2.928800 -1.464400 0.209200 -1.673600 0.000000 0.000000
  13   27   28   29 3 0.627600 1.882800 0.000000 -2.510400 0.000000 0.000000
  13   27   28   30 3 0.627600 1.882800 0.000000 -2.510400 0.000000 0.000000
  13   27   28   42 3 2.928800 -1.464400 0.209200 -1.673600 0.000000 0.000000
  13   27   31   32 3 0.627600 1.882800 0.000000 -2.510400 0.000000 0.000000
  13   27   31   33 3 0.627600 1.882800 0.000000 -2.510400 0.000000 0.000000
  13   27   31   34 3 0.627600 1.882800 0.000000 -2.510400 0.000000 0.000000
  14   13   27   25 3 0.627600 1.882800 0.000000 -2.510400 0.000000 0.000000
  14   13   27   28 3 0.627600 1.882800 0.000000 -2.510400 0.000000 0.000000
  14   13   27   31 3 0.627600 1.882800 0.000000 -2.510400 0.000000 0.000000
  15   13   27   25 3 0.627600 1.882800 0.000000 -2.510400 0.000000 0.000000
  15   13   27   28 3 0.627600 1.882800 0.000000 -2.510400 0.000000 0.000000
  15   13   27   31 3 0.627600 1.882800 0.000000 -2.510400 0.000000 0.000000
  24   25   27   13 3 2.874410 0.581580 2.092000 -5.547990 0.000000 0.000000
  26   25   27   13 3 2.874410 0.581580 2.092000 -5.547990 0.000000 0.000000
  20   21   24   25 3 0.414 1.243 0.000 -1.657 -0.000 0.000
  21   24   25   26 3 21.439 0.000 -21.439 -0.000 -0.000 0.000
  21   24   25   27 3 31.206 -9.768 -21.439 -0.000 -0.000 0.000
  22   21   24   25 3 0.414 1.243 0.000 -1.657 -0.000 0.000
  23   21   24   25 3 0.414 1.243 0.000 -1.657 -0.000 0.000
  24   25   27   28 3 -5.858 -6.694 12.552 -0.000 -0.000 0.000
  24   25   27   31 3 1.789 -5.052 -0.962 4.226 -0.000 0.000
  26   24   25   27 4 180.000 43.932 2
  25   27   28   29 3 58.576 0.000 -58.576 -0.000 -0.000 0.000
  25   27   28   30 3 58.576 0.000 -58.576 -0.000 -0.000 0.000
  25   27   28   42 3 2.928800 -1.464400 0.209200 -1.673600 0.000000 0.000000
  25   27   31   32 3 -0.778 -2.335 0.000 3.113 -0.000 0.000
  25   27   31   33 3 -0.778 -2.335 0.000 3.113 -0.000 0.000
  25   27   31   34 3 -0.778 -2.335 0.000 3.113 -0.000 0.000
  26   25   27   28 3 30.334 -5.230 -25.104 -0.000 -0.000 0.000
  26   25   27   31 3 1.789 -5.052 -0.962 4.226 -0.000 0.000
  28   25   27   31 4 180.000 10.460 2
  27   28   42   40 3 2.928800 -1.464400 0.209200 -1.673600 0.000000 0.000000
  27   28   42   43 3 2.928800 -1.464400 0.209200 -1.673600 0.000000 0.000000
  27   28   42   46 3 2.928800 -1.464400 0.209200 -1.673600 0.000000 0.000000
  28   27   31   32 3 -0.778 -2.335 0.000 3.113 -0.000 0.000
  28   27   31   33 3 -0.778 -2.335 0.000 3.113 -0.000 0.000
  28   27   31   34 3 -0.778 -2.335 0.000 3.113 -0.000 0.000
  29   27   28   30 4 180.000 10.460 2
  31   27   28   29 3 58.576 0.000 -58.576 -0.000 -0.000 0.000
  31   27   28   30 3 58.576 0.000 -58.576 -0.000 -0.000 0.000
  31   27   28   42 3 2.928800 -1.464400 0.209200 -1.673600 0.000000 0.000000
  28   42   43   44 3 0.627600 1.882800 0.000000 -2.510400 0.000000 0.000000
  28   42   43   45 3 0.627600 1.882800 0.000000 -2.510400 0.000000 0.000000
  28   42   43   57 3 2.928800 -1.464400 0.209200 -1.673600 0.000000 0.000000
  28   42   46   47 3 0.627600 1.882800 0.000000 -2.510400 0.000000 0.000000
  28   42   46   48 3 0.627600 1.882800 0.000000 -2.510400 0.000000 0.000000
  28   42   46   49 3 0.627600 1.882800 0.000000 -2.510400 0.000000 0.000000
  29   28   42   40 3 0.627600 1.882800 0.000000 -2.510400 0.000000 0.000000
  29   28   42   43 3 0.627600 1.882800 0.000000 -2.510400 0.000000 0.000000
  29   28   42   46 3 0.627600 1.882800 0.000000 -2.510400 0.000000 0.000000
  30   28   42   40 3 0.627600 1.882800 0.000000 -2.510400 0.000000 0.000000
  30   28   42   43 3 0.627600 1.882800 0.000000 -2.510400 0.000000 0.000000
  30   28   42   46 3 0.627600 1.882800 0.000000 -2.510400 0.000000 0.000000
  39   40   42   28 3 2.874410 0.581580 2.092000 -5.547990 0.000000 0.000000
  41   40   42   28 3 2.874410 0.581580 2.092000 -5.547990 0.000000 0.000000
  35   36   39   40 3 0.414 1.243 0.000 -1.657 -0.000 0.000
  36   39   40   41 3 21.439 0.000 -21.439 -0.000 -0.000 0.000
  36   39   40   42 3 31.206 -9.768 -21.439 -0.000 -0.000 0.000
  37   36   39   40 3 0.414 1.243 0.000 -1.657 -0.000 0.000
  38   36   39   40 3 0.414 1.243 0.000 -1.657 -0.000 0.000
  39   40   42   43 3 -5.858 -6.694 12.552 -0.000 -0.000 0.000
  39   40   42   46 3 1.789 -5.052 -0.962 4.226 -0.000 0.000
  41   39   40   42 4 180.000 43.932 2
  40   42   43   44 3 58.576 0.000 -58.576 -0.000 -0.000 0.000
  40   42   43   45 3 58.576 0.000 -58.576 -0.000 -0.000 0.000
  40   42   43   57 3 2.928800 -1.464400 0.209200 -1.673600 0.000000 0.000000
  40   42   46   47 3 -0.778 -2.335 0.000 3.113 -0.000 0.000
  40   42   46   48 3 -0.778 -2.335 0.000 3.113 -0.000 0.000
  40   42   46   49 3 -0.778 -2.335 0.000 3.113 -0.000 0.000
  41   40   42   43 3 30.334 -5.230 -25.104 -0.000 -0.000 0.000
  41   40   42   46 3 1.789 -5.052 -0.962 4.226 -0.000 0.000
  43   40   42   46 4 180.000 10.460 2
  42   43   57   55 3 2.928800 -1.464400 0.209200 -1.673600 0.000000 0.000000
  42   43   57   58 3 2.928800 -1.464400 0.209200 -1.673600 0.000000 0.000000
  42   43   57   61 3 2.928800 -1.464400 0.209200 -1.673600 0.000000 0.000000
  43   42   46   47 3 -0.778 -2.335 0.000 3.113 -0.000 0.000
  43   42   46   48 3 -0.778 -2.335 0.000 3.113 -0.000 0.000
  43   42   46   49 3 -0.778 -2.335 0.000 3.113 -0.000 0.000
  44   42   43   45 4 180.000 10.460 2
  46   42   43   44 3 58.576 0.000 -58.576 -0.000 -0.000 0.000
  46   42   43   45 3 58.576 0.000 -58.576 -0.000 -0.000 0.000
  46   42   43   57 3 2.928800 -1.464400 0.209200 -1.673600 0.000000 0.000000
  43   57   58   59 3 0.627600 1.882800 0.000000 -2.510400 0.000000 0.000000
  43   57   58   60 3 0.627600 1.882800 0.000000 -2.510400 0.000000 0.000000
  43   57   58   72 3 2.928800 -1.464400 0.209200 -1.673600 0.000000 0.000000
  43   57   61   62 3 0.627600 1.882800 0.000000 -2.510400 0.000000 0.000000
  43   57   61   63 3 0.627600 1.882800 0.000000 -2.510400 0.000000 0.000000
  43   57   61   64 3 0.627600 1.882800 0.000000 -2.510400 0.000000 0.000000
  44   43   57   55 3 0.627600 1.882800 0.000000 -2.510400 0.000000 0.000000
  44   43   57   58 3 0.627600 1.882800 0.000000 -2.510400 0.000000 0.000000
  44   43   57   61 3 0.627600 1.882800 0.000000 -2.510400 0.000000 0.000000
  45   43   57   55 3 0.627600 1.882800 0.000000 -2.510400 0.000000 0.000000
  45   43   57   58 3 0.627600 1.882800 0.000000 -2.510400 0.000000 0.000000
  45   43   57   61 3 0.627600 1.882800 0.000000 -2.510400 0.000000 0.000000
  54   55   57   43 3 2.874410 0.581580 2.092000 -5.547990 0.000000 0.000000
  56   55   57   43 3 2.874410 0.581580 2.092000 -5.547990 0.000000 0.000000
  50   51   54   55 3 0.414 1.243 0.000 -1.657 -0.000 0.000
  51   54   55   56 3 21.439 0.000 -21.439 -0.000 -0.000 0.000
  51   54   55   57 3 31.206 -9.768 -21.439 -0.000 -0.000 0.000
  52   51   54   55 3 0.414 1.243 0.000 -1.657 -0.000 0.000
  53   51   54   55 3 0.414 1.243 0.000 -1.657 -0.000 0.000
  54   55   57   58 3 -5.858 -6.694 12.552 -0.000 -0.000 0.000
  54   55   57   61 3 1.789 -5.052 -0.962 4.226 -0.000 0.000
  56   54   55   57 4 180.000 43.932 2
  55   57   58   59 3 58.576 0.000 -58.576 -0.000 -0.000 0.000
  55   57   58   60 3 58.576 0.000 -58.576 -0.000 -0.000 0.000
  55   57   58   72 3 2.928800 -1.464400 0.209200 -1.673600 0.000000 0.000000
  55   57   61   62 3 -0.778 -2.335 0.000 3.113 -0.000 0.000
  55   57   61   63 3 -0.778 -2.335 0.000 3.113 -0.000 0.000
  55   57   61   64 3 -0.778 -2.335 0.000 3.113 -0.000 0.000
  56   55   57   58 3 30.334 -5.230 -25.104 -0.000 -0.000 0.000
  56   55   57   61 3 1.789 -5.052 -0.962 4.226 -0.000 0.000
  58   55   57   61 4 180.000 10.460 2
  57   58   72   70 3 2.928800 -1.464400 0.209200 -1.673600 0.000000 0.000000
  57   58   72   73 3 2.928800 -1.464400 0.209200 -1.673600 0.000000 0.000000
  57   58   72   76 3 2.928800 -1.464400 0.209200 -1.673600 0.000000 0.000000
  58   57   61   62 3 -0.778 -2.335 0.000 3.113 -0.000 0.000
  58   57   61   63 3 -0.778 -2.335 0.000 3.113 -0.000 0.000
  58   57   61   64 3 -0.778 -2.335 0.000 3.113 -0.000 0.000
  59   57   58   60 4 180.000 10.460 2
  61   57   58   59 3 58.576 0.000 -58.576 -0.000 -0.000 0.000
  61   57   58   60 3 58.576 0.000 -58.576 -0.000 -0.000 0.000
  61   57   58   72 3 2.928800 -1.464400 0.209200 -1.673600 0.000000 0.000000
  58   72   73   74 3 0.627600 1.882800 0.000000 -2.510400 0.000000 0.000000
  58   72   73   75 3 0.627600 1.882800 0.000000 -2.510400 0.000000 0.000000
  58   72   73   87 3 2.928800 -1.464400 0.209200 -1.673600 0.000000 0.000000
  58   72   76   77 3 0.627600 1.882800 0.000000 -2.510400 0.000000 0.000000
  58   72   76   78 3 0.627600 1.882800 0.000000 -2.510400 0.000000 0.000000
  58   72   76   79 3 0.627600 1.882800 0.000000 -2.510400 0.000000 0.000000
  59   58   72   70 3 0.627600 1.882800 0.000000 -2.510400 0.000000 0.000000
  59   58   72   73 3 0.627600 1.882800 0.000000 -2.510400 0.000000 0.000000
  59   58   72   76 3 0.627600 1.882800 0.000000 -2.510400 0.000000 0.000000
  60   58   72   70 3 0.627600 1.882800 0.000000 -2.510400 0.000000 0.000000
  60   58   72   73 3 0.627600 1.882800 0.000000 -2.510400 0.000000 0.000000
  60   58   72   76 3 0.627600 1.882800 0.000000 -2.510400 0.000000 0.000000
  69   70   72   58 3 2.874410 0.581580 2.092000 -5.547990 0.000000 0.000000
  71   70   72   58 3 2.874410 0.581580 2.092000 -5.547990 0.000000 0.000000
  65   66   69   70 3 0.414 1.243 0.000 -1.657 -0.000 0.000
  66   69   70   71 3 21.439 0.000 -21.439 -0.000 -0.000 0.000
  66   69   70   72 3 31.206 -9.768 -21.439 -0.000 -0.000 0.000
  67   66   69   70 3 0.414 1.243 0.000 -1.657 -0.000 0.000
  68   66   69   70 3 0.414 1.243 0.000 -1.657 -0.000 0.000
  69   70   72   73 3 -5.858 -6.694 12.552 -0.000 -0.000 0.000
  69   70   72   76 3 1.789 -5.052 -0.962 4.226 -0.000 0.000
  71   69   70   72 4 180.000 43.932 2
  70   72   73   74 3 58.576 0.000 -58.576 -0.000 -0.000 0.000
  70   72   73   75 3 58.576 0.000 -58.576 -0.000 -0.000 0.000
  70   72   73   87 3 2.928800 -1.464400 0.209200 -1.673600 0.000000 0.000000
  70   72   76   77 3 -0.778 -2.335 0.000 3.113 -0.000 0.000
  70   72   76   78 3 -0.778 -2.335 0.000 3.113 -0.000 0.000
  70   72   76   79 3 -0.778 -2.335 0.000 3.113 -0.000 0.000
  71   70   72   73 3 30.334 -5.230 -25.104 -0.000 -0.000 0.000
  71   70   72   76 3 1.789 -5.052 -0.962 4.226 -0.000 0.000
  73   70   72   76 4 180.000 10.460 2
  72   73   87   85 3 2.928800 -1.464400 0.209200 -1.673600 0.000000 0.000000
  72   73   87   88 3 2.928800 -1.464400 0.209200 -1.673600 0.000000 0.000000
  72   73   87   91 3 2.928800 -1.464400 0.209200 -1.673600 0.000000 0.000000
  73   72   76   77 3 -0.778 -2.335 0.000 3.113 -0.000 0.000
  73   72   76   78 3 -0.778 -2.335 0.000 3.113 -0.000 0.000
  73   72   76   79 3 -0.778 -2.335 0.000 3.113 -0.000 0.000
  74   72   73   75 4 180.000 10.460 2
  76   72   73   74 3 58.576 0.000 -58.576 -0.000 -0.000 0.000
  76   72   73   75 3 58.576 0.000 -58.576 -0.000 -0.000 0.000
  76   72   73   87 3 2.928800 -1.464400 0.209200 -1.673600 0.000000 0.000000
  73   87   88   89 3 0.627600 1.882800 0.000000 -2.510400 0.000000 0.000000
  73   87   88   90 3 0.627600 1.882800 0.000000 -2.510400 0.000000 0.000000
  73   87   88  102 3 2.928800 -1.464400 0.209200 -1.673600 0.000000 0.000000
  73   87   91   92 3 0.627600 1.882800 0.000000 -2.510400 0.000000 0.000000
  73   87   91   93 3 0.627600 1.882800 0.000000 -2.510400 0.000000 0.000000
  73   87   91   94 3 0.627600 1.882800 0.000000 -2.510400 0.000000 0.000000
  74   73   87   85 3 0.627600 1.882800 0.000000 -2.510400 0.000000 0.000000
  74   73   87   88 3 0.627600 1.882800 0.000000 -2.510400 0.000000 0.000000
  74   73   87   91 3 0.627600 1.882800 0.000000 -2.510400 0.000000 0.000000
  75   73   87   85 3 0.627600 1.882800 0.000000 -2.510400 0.000000 0.000000
  75   73   87   88 3 0.627600 1.882800 0.000000 -2.510400 0.000000 0.000000
  75   73   87   91 3 0.627600 1.882800 0.000000 -2.510400 0.000000 0.000000
  84   85   87   73 3 2.874410 0.581580 2.092000 -5.547990 0.000000 0.000000
  86   85   87   73 3 2.874410 0.581580 2.092000 -5.547990 0.000000 0.000000
  80   81   84   85 3 0.414 1.243 0.000 -1.657 -0.000 0.000
  81   84   85   86 3 21.439 0.000 -21.439 -0.000 -0.000 0.000
  81   84   85   87 3 31.206 -9.768 -21.439 -0.000 -0.000 0.000
  82   81   84   85 3 0.414 1.243 0.000 -1.657 -0.000 0.000
  83   81   84   85 3 0.414 1.243 0.000 -1.657 -0.000 0.000
  84   85   87   88 3 -5.858 -6.694 12.552 -0.000 -0.000 0.000
  84   85   87   91 3 1.789 -5.052 -0.962 4.226 -0.000 0.000
  86   84   85   87 4 180.000 43.932 2
  85   87   88   89 3 58.576 0.000 -58.576 -0.000 -0.000 0.000
  85   87   88   90 3 58.576 0.000 -58.576 -0.000 -0.000 0.000
  85   87   88  102 3 2.928800 -1.464400 0.209200 -1.673600 0.000000 0.000000
  85   87   91   92 3 -0.778 -2.335 0.000 3.113 -0.000 0.000
  85   87   91   93 3 -0.778 -2.335 0.000 3.113 -0.000 0.000
  85   87   91   94 3 -0.778 -2.335 0.000 3.113 -0.000 0.000
  86   85   87   88 3 30.334 -5.230 -25.104 -0.000 -0.000 0.000
  86   85   87   91 3 1.789 -5.052 -0.962 4.226 -0.000 0.000
  88   85   87   91 4 180.000 10.460 2
  87   88  102  100 3 2.928800 -1.464400 0.209200 -1.673600 0.000000 0.000000
  87   88  102  103 3 2.928800 -1.464400 0.209200 -1.673600 0.000000 0.000000
  87   88  102  106 3 2.928800 -1.464400 0.209200 -1.673600 0.000000 0.000000
  88   87   91   92 3 -0.778 -2.335 0.000 3.113 -0.000 0.000
  88   87   91   93 3 -0.778 -2.335 0.000 3.113 -0.000 0.000
  88   87   91   94 3 -0.778 -2.335 0.000 3.113 -0.000 0.000
  89   87   88   90 4 180.000 10.460 2
  91   87   88   89 3 58.576 0.000 -58.576 -0.000 -0.000 0.000
  91   87   88   90 3 58.576 0.000 -58.576 -0.000 -0.000 0.000
  91   87   88  102 3 2.928800 -1.464400 0.209200 -1.673600 0.000000 0.000000
  88  102  103  104 3 0.627600 1.882800 0.000000 -2.510400 0.000000 0.000000
  88  102  103  105 3 0.627600 1.882800 0.000000 -2.510400 0.000000 0.000000
  88  102  103  117 3 2.928800 -1.464400 0.209200 -1.673600 0.000000 0.000000
  88  102  106  107 3 0.627600 1.882800 0.000000 -2.510400 0.000000 0.000000
  88  102  106  108 3 0.627600 1.882800 0.000000 -2.510400 0.000000 0.000000
  88  102  106  109 3 0.627600 1.882800 0.000000 -2.510400 0.000000 0.000000
  89   88  102  100 3 0.627600 1.882800 0.000000 -2.510400 0.000000 0.000000
  89   88  102  103 3 0.627600 1.882800 0.000000 -2.510400 0.000000 0.000000
  89   88  102  106 3 0.627600 1.882800 0.000000 -2.510400 0.000000 0.000000
  90   88  102  100 3 0.627600 1.882800 0.000000 -2.510400 0.000000 0.000000
  90   88  102  103 3 0.627600 1.882800 0.000000 -2.510400 0.000000 0.000000
  90   88  102  106 3 0.627600 1.882800 0.000000 -2.510400 0.000000 0.000000
  99  100  102   88 3 2.874410 0.581580 2.092000 -5.547990 0.000000 0.000000
 101  100  102   88 3 2.874410 0.581580 2.092000 -5.547990 0.000000 0.000000
  95   96   99  100 3 0.414 1.243 0.000 -1.657 -0.000 0.000
  96   99  100  101 3 21.439 0.000 -21.439 -0.000 -0.000 0.000
  96   99  100  102 3 31.206 -9.768 -21.439 -0.000 -0.000 0.000
  97   96   99  100 3 0.414 1.243 0.000 -1.657 -0.000 0.000
  98   96   99  100 3 0.414 1.243 0.000 -1.657 -0.000 0.000
  99  100  102  103 3 -5.858 -6.694 12.552 -0.000 -0.000 0.000
  99  100  102  106 3 1.789 -5.052 -0.962 4.226 -0.000 0.000
 101   99  100  102 4 180.000 43.932 2
 100  102  103  104 3 58.576 0.000 -58.576 -0.000 -0.000 0.000
 100  102  103  105 3 58.576 0.000 -58.576 -0.000 -0.000 0.000
 100  102  103  117 3 2.928800 -1.464400 0.209200 -1.673600 0.000000 0.000000
 100  102  106  107 3 -0.778 -2.335 0.000 3.113 -0.000 0.000
 100  102  106  108 3 -0.778 -2.335 0.000 3.113 -0.000 0.000
 100  102  106  109 3 -0.778 -2.335 0.000 3.113 -0.000 0.000
 101  100  102  103 3 30.334 -5.230 -25.104 -0.000 -0.000 0.000
 101  100  102  106 3 1.789 -5.052 -0.962 4.226 -0.000 0.000
 103  100  102  106 4 180.000 10.460 2
 102  103  117  115 3 2.928800 -1.464400 0.209200 -1.673600 0.000000 0.000000
 102  103  117  118 3 2.928800 -1.464400 0.209200 -1.673600 0.000000 0.000000
 102  103  117  121 3 2.928800 -1.464400 0.209200 -1.673600 0.000000 0.000000
 103  102  106  107 3 -0.778 -2.335 0.000 3.113 -0.000 0.000
 103  102  106  108 3 -0.778 -2.335 0.000 3.113 -0.000 0.000
 103  102  106  109 3 -0.778 -2.335 0.000 3.113 -0.000 0.000
 104  102  103  105 4 180.000 10.460 2
 106  102  103  104 3 58.576 0.000 -58.576 -0.000 -0.000 0.000
 106  102  103  105 3 58.576 0.000 -58.576 -0.000 -0.000 0.000
 106  102  103  117 3 2.928800 -1.464400 0.209200 -1.673600 0.000000 0.000000
 103  117  118  119 3 0.627600 1.882800 0.000000 -2.510400 0.000000 0.000000
 103  117  118  120 3 0.627600 1.882800 0.000000 -2.510400 0.000000 0.000000
 103  117  118  132 3 2.928800 -1.464400 0.209200 -1.673600 0.000000 0.000000
 103  117  121  122 3 0.627600 1.882800 0.000000 -2.510400 0.000000 0.000000
 103  117  121  123 3 0.627600 1.882800 0.000000 -2.510400 0.000000 0.000000
 103  117  121  124 3 0.627600 1.882800 0.000000 -2.510400 0.000000 0.000000
 104  103  117  115 3 0.627600 1.882800 0.000000 -2.510400 0.000000 0.000000
 104  103  117  118 3 0.627600 1.882800 0.000000 -2.510400 0.000000 0.000000
 104  103  117  121 3 0.627600 1.882800 0.000000 -2.510400 0.000000 0.000000
 105  103  117  115 3 0.627600 1.882800 0.000000 -2.510400 0.000000 0.000000
 105  103  117  118 3 0.627600 1.882800 0.000000 -2.510400 0.000000 0.000000
 105  103  117  121 3 0.627600 1.882800 0.000000 -2.510400 0.000000 0.000000
 114  115  117  103 3 2.874410 0.581580 2.092000 -5.547990 0.000000 0.000000
 116  115  117  103 3 2.874410 0.581580 2.092000 -5.547990 0.000000 0.000000
 110  111  114  115 3 0.414 1.243 0.000 -1.657 -0.000 0.000
 111  114  115  116 3 21.439 0.000 -21.439 -0.000 -0.000 0.000
 111  114  115  117 3 31.206 -9.768 -21.439 -0.000 -0.000 0.000
 112  111  114  115 3 0.414 1.243 0.000 -1.657 -0.000 0.000
 113  111  114  115 3 0.414 1.243 0.000 -1.657 -0.000 0.000
 114  115  117  118 3 -5.858 -6.694 12.552 -0.000 -0.000 0.000
 114  115  117  121 3 1.789 -5.052 -0.962 4.226 -0.000 0.000
 116  114  115  117 4 180.000 43.932 2
 115  117  118  119 3 58.576 0.000 -58.576 -0.000 -0.000 0.000
 115  117  118  120 3 58.576 0.000 -58.576 -0.000 -0.000 0.000
 115  117  118  132 3 2.928800 -1.464400 0.209200 -1.673600 0.000000 0.000000
 115  117  121  122 3 -0.778 -2.335 0.000 3.113 -0.000 0.000
 115  117  121  123 3 -0.778 -2.335 0.000 3.113 -0.000 0.000
 115  117  121  124 3 -0.778 -2.335 0.000 3.113 -0.000 0.000
 116  115  117  118 3 30.334 -5.230 -25.104 -0.000 -0.000 0.000
 116  115  117  121 3 1.789 -5.052 -0.962 4.226 -0.000 0.000
 118  115  117  121 4 180.000 10.460 2
 117  118  132  130 3 2.928800 -1.464400 0.209200 -1.673600 0.000000 0.000000
 117  118  132  133 3 2.928800 -1.464400 0.209200 -1.673600 0.000000 0.000000
 117  118  132  136 3 2.928800 -1.464400 0.209200 -1.673600 0.000000 0.000000
 118  117  121  122 3 -0.778 -2.335 0.000 3.113 -0.000 0.000
 118  117  121  123 3 -0.778 -2.335 0.000 3.113 -0.000 0.000
 118  117  121  124 3 -0.778 -2.335 0.000 3.113 -0.000 0.000
 119  117  118  120 4 180.000 10.460 2
 121  117  118  119 3 58.576 0.000 -58.576 -0.000 -0.000 0.000
 121  117  118  120 3 58.576 0.000 -58.576 -0.000 -0.000 0.000
 121  117  118  132 3 2.928800 -1.464400 0.209200 -1.673600 0.000000 0.000000
 118  132  133  134 3 0.627600 1.882800 0.000000 -2.510400 0.000000 0.000000
 118  132  133  135 3 0.627600 1.882800 0.000000 -2.510400 0.000000 0.000000
 118  132  133  147 3 2.928800 -1.464400 0.209200 -1.673600 0.000000 0.000000
 118  132  136  137 3 0.627600 1.882800 0.000000 -2.510400 0.000000 0.000000
 118  132  136  138 3 0.627600 1.882800 0.000000 -2.510400 0.000000 0.000000
 118  132  136  139 3 0.627600 1.882800 0.000000 -2.510400 0.000000 0.000000
 119  118  132  130 3 0.627600 1.882800 0.000000 -2.510400 0.000000 0.000000
 119  118  132  133 3 0.627600 1.882800 0.000000 -2.510400 0.000000 0.000000
 119  118  132  136 3 0.627600 1.882800 0.000000 -2.510400 0.000000 0.000000
 120  118  132  130 3 0.627600 1.882800 0.000000 -2.510400 0.000000 0.000000
 120  118  132  133 3 0.627600 1.882800 0.000000 -2.510400 0.000000 0.000000
 120  118  132  136 3 0.627600 1.882800 0.000000 -2.510400 0.000000 0.000000
 129  130  132  118 3 2.874410 0.581580 2.092000 -5.547990 0.000000 0.000000
 131  130  132  118 3 2.874410 0.581580 2.092000 -5.547990 0.000000 0.000000
 125  126  129  130 3 0.414 1.243 0.000 -1.657 -0.000 0.000
 126  129  130  131 3 21.439 0.000 -21.439 -0.000 -0.000 0.000
 126  129  130  132 3 31.206 -9.768 -21.439 -0.000 -0.000 0.000
 127  126  129  130 3 0.414 1.243 0.000 -1.657 -0.000 0.000
 128  126  129  130 3 0.414 1.243 0.000 -1.657 -0.000 0.000
 129  130  132  133 3 -5.858 -6.694 12.552 -0.000 -0.000 0.000
 129  130  132  136 3 1.789 -5.052 -0.962 4.226 -0.000 0.000
 131  129  130  132 4 180.000 43.932 2
 130  132  133  134 3 58.576 0.000 -58.576 -0.000 -0.000 0.000
 130  132  133  135 3 58.576 0.000 -58.576 -0.000 -0.000 0.000
 130  132  133  147 3 2.928800 -1.464400 0.209200 -1.673600 0.000000 0.000000
 130  132  136  137 3 -0.778 -2.335 0.000 3.113 -0.000 0.000
 130  132  136  138 3 -0.778 -2.335 0.000 3.113 -0.000 0.000
 130  132  136  139 3 -0.778 -2.335 0.000 3.113 -0.000 0.000
 131  130  132  133 3 30.334 -5.230 -25.104 -0.000 -0.000 0.000
 131  130  132  136 3 1.789 -5.052 -0.962 4.226 -0.000 0.000
 133  130  132  136 4 180.000 10.460 2
 132  133  147  145 3 2.928800 -1.464400 0.209200 -1.673600 0.000000 0.000000
 132  133  147  148 3 2.928800 -1.464400 0.209200 -1.673600 0.000000 0.000000
 132  133  147  151 3 2.928800 -1.464400 0.209200 -1.673600 0.000000 0.000000
 133  132  136  137 3 -0.778 -2.335 0.000 3.113 -0.000 0.000
 133  132  136  138 3 -0.778 -2.335 0.000 3.113 -0.000 0.000
 133  132  136  139 3 -0.778 -2.335 0.000 3.113 -0.000 0.000
 134  132  133  135 4 180.000 10.460 2
 136  132  133  134 3 58.576 0.000 -58.576 -0.000 -0.000 0.000
 136  132  133  135 3 58.576 0.000 -58.576 -0.000 -0.000 0.000
 136  132  133  147 3 2.928800 -1.464400 0.209200 -1.673600 0.000000 0.000000
 133  147  148  149 3 0.627600 1.882800 0.000000 -2.510400 0.000000 0.000000
 133  147  148  150 3 0.627600 1.882800 0.000000 -2.510400 0.000000 0.000000
 133  147  148  162 3 2.928800 -1.464400 0.209200 -1.673600 0.000000 0.000000
 133  147  151  152 3 0.627600 1.882800 0.000000 -2.510400 0.000000 0.000000
 133  147  151  153 3 0.627600 1.882800 0.000000 -2.510400 0.000000 0.000000
 133  147  151  154 3 0.627600 1.882800 0.000000 -2.510400 0.000000 0.000000
 134  133  147  145 3 0.627600 1.882800 0.000000 -2.510400 0.000000 0.000000
 134  133  147  148 3 0.627600 1.882800 0.000000 -2.510400 0.000000 0.000000
 134  133  147  151 3 0.627600 1.882800 0.000000 -2.510400 0.000000 0.000000
 135  133  147  145 3 0.627600 1.882800 0.000000 -2.510400 0.000000 0.000000
 135  133  147  148 3 0.627600 1.882800 0.000000 -2.510400 0.000000 0.000000
 135  133  147  151 3 0.627600 1.882800 0.000000 -2.510400 0.000000 0.000000
 144  145  147  133 3 2.874410 0.581580 2.092000 -5.547990 0.000000 0.000000
 146  145  147  133 3 2.874410 0.581580 2.092000 -5.547990 0.000000 0.000000
 140  141  144  145 3 0.414 1.243 0.000 -1.657 -0.000 0.000
 141  144  145  146 3 21.439 0.000 -21.439 -0.000 -0.000 0.000
 141  144  145  147 3 31.206 -9.768 -21.439 -0.000 -0.000 0.000
 142  141  144  145 3 0.414 1.243 0.000 -1.657 -0.000 0.000
 143  141  144  145 3 0.414 1.243 0.000 -1.657 -0.000 0.000
 144  145  147  148 3 -5.858 -6.694 12.552 -0.000 -0.000 0.000
 144  145  147  151 3 1.789 -5.052 -0.962 4.226 -0.000 0.000
 146  144  145  147 4 180.000 43.932 2
 145  147  148  149 3 58.576 0.000 -58.576 -0.000 -0.000 0.000
 145  147  148  150 3 58.576 0.000 -58.576 -0.000 -0.000 0.000
 145  147  148  162 3 2.928800 -1.464400 0.209200 -1.673600 0.000000 0.000000
 145  147  151  152 3 -0.778 -2.335 0.000 3.113 -0.000 0.000
 145  147  151  153 3 -0.778 -2.335 0.000 3.113 -0.000 0.000
 145  147  151  154 3 -0.778 -2.335 0.000 3.113 -0.000 0.000
 146  145  147  148 3 30.334 -5.230 -25.104 -0.000 -0.000 0.000
 146  145  147  151 3 1.789 -5.052 -0.962 4.226 -0.000 0.000
 148  145  147  151 4 180.000 10.460 2
 147  148  162  160 3 2.928800 -1.464400 0.209200 -1.673600 0.000000 0.000000
 147  148  162  163 3 2.928800 -1.464400 0.209200 -1.673600 0.000000 0.000000
 147  148  162  166 3 2.928800 -1.464400 0.209200 -1.673600 0.000000 0.000000
 148  147  151  152 3 -0.778 -2.335 0.000 3.113 -0.000 0.000
 148  147  151  153 3 -0.778 -2.335 0.000 3.113 -0.000 0.000
 148  147  151  154 3 -0.778 -2.335 0.000 3.113 -0.000 0.000
 149  147  148  150 4 180.000 10.460 2
 151  147  148  149 3 58.576 0.000 -58.576 -0.000 -0.000 0.000
 151  147  148  150 3 58.576 0.000 -58.576 -0.000 -0.000 0.000
 151  147  148  162 3 2.928800 -1.464400 0.209200 -1.673600 0.000000 0.000000
 148  162  163  164 3 0.627600 1.882800 0.000000 -2.510400 0.000000 0.000000
 148  162  163  165 3 0.627600 1.882800 0.000000 -2.510400 0.000000 0.000000
 148  162  163  177 3 2.928800 -1.464400 0.209200 -1.673600 0.000000 0.000000
 148  162  166  167 3 0.627600 1.882800 0.000000 -2.510400 0.000000 0.000000
 148  162  166  168 3 0.627600 1.882800 0.000000 -2.510400 0.000000 0.000000
 148  162  166  169 3 0.627600 1.882800 0.000000 -2.510400 0.000000 0.000000
 149  148  162  160 3 0.627600 1.882800 0.000000 -2.510400 0.000000 0.000000
 149  148  162  163 3 0.627600 1.882800 0.000000 -2.510400 0.000000 0.000000
 149  148  162  166 3 0.627600 1.882800 0.000000 -2.510400 0.000000 0.000000
 150  148  162  160 3 0.627600 1.882800 0.000000 -2.510400 0.000000 0.000000
 150  148  162  163 3 0.627600 1.882800 0.000000 -2.510400 0.000000 0.000000
 150  148  162  166 3 0.627600 1.882800 0.000000 -2.510400 0.000000 0.000000
 159  160  162  148 3 2.874410 0.581580 2.092000 -5.547990 0.000000 0.000000
 161  160  162  148 3 2.874410 0.581580 2.092000 -5.547990 0.000000 0.000000
 155  156  159  160 3 0.414 1.243 0.000 -1.657 -0.000 0.000
 156  159  160  161 3 21.439 0.000 -21.439 -0.000 -0.000 0.000
 156  159  160  162 3 31.206 -9.768 -21.439 -0.000 -0.000 0.000
 157  156  159  160 3 0.414 1.243 0.000 -1.657 -0.000 0.000
 158  156  159  160 3 0.414 1.243 0.000 -1.657 -0.000 0.000
 159  160  162  163 3 -5.858 -6.694 12.552 -0.000 -0.000 0.000
 159  160  162  166 3 1.789 -5.052 -0.962 4.226 -0.000 0.000
 161  159  160  162 4 180.000 43.932 2
 160  162  163  164 3 58.576 0.000 -58.576 -0.000 -0.000 0.000
 160  162  163  165 3 58.576 0.000 -58.576 -0.000 -0.000 0.000
 160  162  163  177 3 2.928800 -1.464400 0.209200 -1.673600 0.000000 0.000000
 160  162  166  167 3 -0.778 -2.335 0.000 3.113 -0.000 0.000
 160  162  166  168 3 -0.778 -2.335 0.000 3.113 -0.000 0.000
 160  162  166  169 3 -0.778 -2.335 0.000 3.113 -0.000 0.000
 161  160  162  163 3 30.334 -5.230 -25.104 -0.000 -0.000 0.000
 161  160  162  166 3 1.789 -5.052 -0.962 4.226 -0.000 0.000
 163  160  162  166 4 180.000 10.460 2
 162  163  177  175 3 2.928800 -1.464400 0.209200 -1.673600 0.000000 0.000000
 162  163  177  178 3 2.928800 -1.464400 0.209200 -1.673600 0.000000 0.000000
 162  163  177  181 3 2.928800 -1.464400 0.209200 -1.673600 0.000000 0.000000
 163  162  166  167 3 -0.778 -2.335 0.000 3.113 -0.000 0.000
 163  162  166  168 3 -0.778 -2.335 0.000 3.113 -0.000 0.000
 163  162  166  169 3 -0.778 -2.335 0.000 3.113 -0.000 0.000
 164  162  163  165 4 180.000 10.460 2
 166  162  163  164 3 58.576 0.000 -58.576 -0.000 -0.000 0.000
 166  162  163  165 3 58.576 0.000 -58.576 -0.000 -0.000 0.000
 166  162  163  177 3 2.928800 -1.464400 0.209200 -1.673600 0.000000 0.000000
 163  177  178  179 3 0.627600 1.882800 0.000000 -2.510400 0.000000 0.000000
 163  177  178  180 3 0.627600 1.882800 0.000000 -2.510400 0.000000 0.000000
 163  177  178  192 3 2.928800 -1.464400 0.209200 -1.673600 0.000000 0.000000
 163  177  181  182 3 0.627600 1.882800 0.000000 -2.510400 0.000000 0.000000
 163  177  181  183 3 0.627600 1.882800 0.000000 -2.510400 0.000000 0.000000
 163  177  181  184 3 0.627600 1.882800 0.000000 -2.510400 0.000000 0.000000
 164  163  177  175 3 0.627600 1.882800 0.000000 -2.510400 0.000000 0.000000
 164  163  177  178 3 0.627600 1.882800 0.000000 -2.510400 0.000000 0.000000
 164  163  177  181 3 0.627600 1.882800 0.000000 -2.510400 0.000000 0.000000
 165  163  177  175 3 0.627600 1.882800 0.000000 -2.510400 0.000000 0.000000
 165  163  177  178 3 0.627600 1.882800 0.000000 -2.510400 0.000000 0.000000
 165  163  177  181 3 0.627600 1.882800 0.000000 -2.510400 0.000000 0.000000
 174  175  177  163 3 2.874410 0.581580 2.092000 -5.547990 0.000000 0.000000
 176  175  177  163 3 2.874410 0.581580 2.092000 -5.547990 0.000000 0.000000
 170  171  174  175 3 0.414 1.243 0.000 -1.657 -0.000 0.000
 171  174  175  176 3 21.439 0.000 -21.439 -0.000 -0.000 0.000
 171  174  175  177 3 31.206 -9.768 -21.439 -0.000 -0.000 0.000
 172  171  174  175 3 0.414 1.243 0.000 -1.657 -0.000 0.000
 173  171  174  175 3 0.414 1.243 0.000 -1.657 -0.000 0.000
 174  175  177  178 3 -5.858 -6.694 12.552 -0.000 -0.000 0.000
 174  175  177  181 3 1.789 -5.052 -0.962 4.226 -0.000 0.000
 176  174  175  177 4 180.000 43.932 2
 175  177  178  179 3 58.576 0.000 -58.576 -0.000 -0.000 0.000
 175  177  178  180 3 58.576 0.000 -58.576 -0.000 -0.000 0.000
 175  177  178  192 3 2.928800 -1.464400 0.209200 -1.673600 0.000000 0.000000
 175  177  181  182 3 -0.778 -2.335 0.000 3.113 -0.000 0.000
 175  177  181  183 3 -0.778 -2.335 0.000 3.113 -0.000 0.000
 175  177  181  184 3 -0.778 -2.335 0.000 3.113 -0.000 0.000
 176  175  177  178 3 30.334 -5.230 -25.104 -0.000 -0.000 0.000
 176  175  177  181 3 1.789 -5.052 -0.962 4.226 -0.000 0.000
 178  175  177  181 4 180.000 10.460 2
 177  178  192  190 3 2.928800 -1.464400 0.209200 -1.673600 0.000000 0.000000
 177  178  192  193 3 2.928800 -1.464400 0.209200 -1.673600 0.000000 0.000000
 177  178  192  196 3 2.928800 -1.464400 0.209200 -1.673600 0.000000 0.000000
 178  177  181  182 3 -0.778 -2.335 0.000 3.113 -0.000 0.000
 178  177  181  183 3 -0.778 -2.335 0.000 3.113 -0.000 0.000
 178  177  181  184 3 -0.778 -2.335 0.000 3.113 -0.000 0.000
 179  177  178  180 4 180.000 10.460 2
 181  177  178  179 3 58.576 0.000 -58.576 -0.000 -0.000 0.000
 181  177  178  180 3 58.576 0.000 -58.576 -0.000 -0.000 0.000
 181  177  178  192 3 2.928800 -1.464400 0.209200 -1.673600 0.000000 0.000000
 178  192  193  194 3 0.627600 1.882800 0.000000 -2.510400 0.000000 0.000000
 178  192  193  195 3 0.627600 1.882800 0.000000 -2.510400 0.000000 0.000000
 178  192  193  207 3 2.928800 -1.464400 0.209200 -1.673600 0.000000 0.000000
 178  192  196  197 3 0.627600 1.882800 0.000000 -2.510400 0.000000 0.000000
 178  192  196  198 3 0.627600 1.882800 0.000000 -2.510400 0.000000 0.000000
 178  192  196  199 3 0.627600 1.882800 0.000000 -2.510400 0.000000 0.000000
 179  178  192  190 3 0.627600 1.882800 0.000000 -2.510400 0.000000 0.000000
 179  178  192  193 3 0.627600 1.882800 0.000000 -2.510400 0.000000 0.000000
 179  178  192  196 3 0.627600 1.882800 0.000000 -2.510400 0.000000 0.000000
 180  178  192  190 3 0.627600 1.882800 0.000000 -2.510400 0.000000 0.000000
 180  178  192  193 3 0.627600 1.882800 0.000000 -2.510400 0.000000 0.000000
 180  178  192  196 3 0.627600 1.882800 0.000000 -2.510400 0.000000 0.000000
 189  190  192  178 3 2.874410 0.581580 2.092000 -5.547990 0.000000 0.000000
 191  190  192  178 3 2.874410 0.581580 2.092000 -5.547990 0.000000 0.000000
 185  186  189  190 3 0.414 1.243 0.000 -1.657 -0.000 0.000
 186  189  190  191 3 21.439 0.000 -21.439 -0.000 -0.000 0.000
 186  189  190  192 3 31.206 -9.768 -21.439 -0.000 -0.000 0.000
 187  186  189  190 3 0.414 1.243 0.000 -1.657 -0.000 0.000
 188  186  189  190 3 0.414 1.243 0.000 -1.657 -0.000 0.000
 189  190  192  193 3 -5.858 -6.694 12.552 -0.000 -0.000 0.000
 189  190  192  196 3 1.789 -5.052 -0.962 4.226 -0.000 0.000
 191  189  190  192 4 180.000 43.932 2
 190  192  193  194 3 58.576 0.000 -58.576 -0.000 -0.000 0.000
 190  192  193  195 3 58.576 0.000 -58.576 -0.000 -0.000 0.000
 190  192  193  207 3 2.928800 -1.464400 0.209200 -1.673600 0.000000 0.000000
 190  192  196  197 3 -0.778 -2.335 0.000 3.113 -0.000 0.000
 190  192  196  198 3 -0.778 -2.335 0.000 3.113 -0.000 0.000
 190  192  196  199 3 -0.778 -2.335 0.000 3.113 -0.000 0.000
 191  190  192  193 3 30.334 -5.230 -25.104 -0.000 -0.000 0.000
 191  190  192  196 3 1.789 -5.052 -0.962 4.226 -0.000 0.000
 193  190  192  196 4 180.000 10.460 2
 192  193  207  205 3 2.928800 -1.464400 0.209200 -1.673600 0.000000 0.000000
 192  193  207  208 3 2.928800 -1.464400 0.209200 -1.673600 0.000000 0.000000
 192  193  207  211 3 2.928800 -1.464400 0.209200 -1.673600 0.000000 0.000000
 193  192  196  197 3 -0.778 -2.335 0.000 3.113 -0.000 0.000
 193  192  196  198 3 -0.778 -2.335 0.000 3.113 -0.000 0.000
 193  192  196  199 3 -0.778 -2.335 0.000 3.113 -0.000 0.000
 194  192  193  195 4 180.000 10.460 2
 196  192  193  194 3 58.576 0.000 -58.576 -0.000 -0.000 0.000
 196  192  193  195 3 58.576 0.000 -58.576 -0.000 -0.000 0.000
 196  192  193  207 3 2.928800 -1.464400 0.209200 -1.673600 0.000000 0.000000
 193  207  208  209 3 0.627600 1.882800 0.000000 -2.510400 0.000000 0.000000
 193  207  208  210 3 0.627600 1.882800 0.000000 -2.510400 0.000000 0.000000
 193  207  208  222 3 2.928800 -1.464400 0.209200 -1.673600 0.000000 0.000000
 193  207  211  212 3 0.627600 1.882800 0.000000 -2.510400 0.000000 0.000000
 193  207  211  213 3 0.627600 1.882800 0.000000 -2.510400 0.000000 0.000000
 193  207  211  214 3 0.627600 1.882800 0.000000 -2.510400 0.000000 0.000000
 194  193  207  205 3 0.627600 1.882800 0.000000 -2.510400 0.000000 0.000000
 194  193  207  208 3 0.627600 1.882800 0.000000 -2.510400 0.000000 0.000000
 194  193  207  211 3 0.627600 1.882800 0.000000 -2.510400 0.000000 0.000000
 195  193  207  205 3 0.627600 1.882800 0.000000 -2.510400 0.000000 0.000000
 195  193  207  208 3 0.627600 1.882800 0.000000 -2.510400 0.000000 0.000000
 195  193  207  211 3 0.627600 1.882800 0.000000 -2.510400 0.000000 0.000000
 204  205  207  193 3 2.874410 0.581580 2.092000 -5.547990 0.000000 0.000000
 206  205  207  193 3 2.874410 0.581580 2.092000 -5.547990 0.000000 0.000000
 200  201  204  205 3 0.414 1.243 0.000 -1.657 -0.000 0.000
 201  204  205  206 3 21.439 0.000 -21.439 -0.000 -0.000 0.000
 201  204  205  207 3 31.206 -9.768 -21.439 -0.000 -0.000 0.000
 202  201  204  205 3 0.414 1.243 0.000 -1.657 -0.000 0.000
 203  201  204  205 3 0.414 1.243 0.000 -1.657 -0.000 0.000
 204  205  207  208 3 -5.858 -6.694 12.552 -0.000 -0.000 0.000
 204  205  207  211 3 1.789 -5.052 -0.962 4.226 -0.000 0.000
 206  204  205  207 4 180.000 43.932 2
 205  207  208  209 3 58.576 0.000 -58.576 -0.000 -0.000 0.000
 205  207  208  210 3 58.576 0.000 -58.576 -0.000 -0.000 0.000
 205  207  208  222 3 2.928800 -1.464400 0.209200 -1.673600 0.000000 0.000000
 205  207  211  212 3 -0.778 -2.335 0.000 3.113 -0.000 0.000
 205  207  211  213 3 -0.778 -2.335 0.000 3.113 -0.000 0.000
 205  207  211  214 3 -0.778 -2.335 0.000 3.113 -0.000 0.000
 206  205  207  208 3 30.334 -5.230 -25.104 -0.000 -0.000 0.000
 206  205  207  211 3 1.789 -5.052 -0.962 4.226 -0.000 0.000
 208  205  207  211 4 180.000 10.460 2
 207  208  222  220 3 2.928800 -1.464400 0.209200 -1.673600 0.000000 0.000000
 207  208  222  223 3 2.928800 -1.464400 0.209200 -1.673600 0.000000 0.000000
 207  208  222  226 3 2.928800 -1.464400 0.209200 -1.673600 0.000000 0.000000
 208  207  211  212 3 -0.778 -2.335 0.000 3.113 -0.000 0.000
 208  207  211  213 3 -0.778 -2.335 0.000 3.113 -0.000 0.000
 208  207  211  214 3 -0.778 -2.335 0.000 3.113 -0.000 0.000
 209  207  208  210 4 180.000 10.460 2
 211  207  208  209 3 58.576 0.000 -58.576 -0.000 -0.000 0.000
 211  207  208  210 3 58.576 0.000 -58.576 -0.000 -0.000 0.000
 211  207  208  222 3 2.928800 -1.464400 0.209200 -1.673600 0.000000 0.000000
 208  222  223  224 3 0.627600 1.882800 0.000000 -2.510400 0.000000 0.000000
 208  222  223  225 3 0.627600 1.882800 0.000000 -2.510400 0.000000 0.000000
 208  222  223  237 3 2.928800 -1.464400 0.209200 -1.673600 0.000000 0.000000
 208  222  226  227 3 0.627600 1.882800 0.000000 -2.510400 0.000000 0.000000
 208  222  226  228 3 0.627600 1.882800 0.000000 -2.510400 0.000000 0.000000
 208  222  226  229 3 0.627600 1.882800 0.000000 -2.510400 0.000000 0.000000
 209  208  222  220 3 0.627600 1.882800 0.000000 -2.510400 0.000000 0.000000
 209  208  222  223 3 0.627600 1.882800 0.000000 -2.510400 0.000000 0.000000
 209  208  222  226 3 0.627600 1.882800 0.000000 -2.510400 0.000000 0.000000
 210  208  222  220 3 0.627600 1.882800 0.000000 -2.510400 0.000000 0.000000
 210  208  222  223 3 0.627600 1.882800 0.000000 -2.510400 0.000000 0.000000
 210  208  222  226 3 0.627600 1.882800 0.000000 -2.510400 0.000000 0.000000
 219  220  222  208 3 2.874410 0.581580 2.092000 -5.547990 0.000000 0.000000
 221  220  222  208 3 2.874410 0.581580 2.092000 -5.547990 0.000000 0.000000
 215  216  219  220 3 0.414 1.243 0.000 -1.657 -0.000 0.000
 216  219  220  221 3 21.439 0.000 -21.439 -0.000 -0.000 0.000
 216  219  220  222 3 31.206 -9.768 -21.439 -0.000 -0.000 0.000
 217  216  219  220 3 0.414 1.243 0.000 -1.657 -0.000 0.000
 218  216  219  220 3 0.414 1.243 0.000 -1.657 -0.000 0.000
 219  220  222  223 3 -5.858 -6.694 12.552 -0.000 -0.000 0.000
 219  220  222  226 3 1.789 -5.052 -0.962 4.226 -0.000 0.000
 221  219  220  222 4 180.000 43.932 2
 220  222  223  224 3 58.576 0.000 -58.576 -0.000 -0.000 0.000
 220  222  223  225 3 58.576 0.000 -58.576 -0.000 -0.000 0.000
 220  222  223  237 3 2.928800 -1.464400 0.209200 -1.673600 0.000000 0.000000
 220  222  226  227 3 -0.778 -2.335 0.000 3.113 -0.000 0.000
 220  222  226  228 3 -0.778 -2.335 0.000 3.113 -0.000 0.000
 220  222  226  229 3 -0.778 -2.335 0.000 3.113 -0.000 0.000
 221  220  222  223 3 30.334 -5.230 -25.104 -0.000 -0.000 0.000
 221  220  222  226 3 1.789 -5.052 -0.962 4.226 -0.000 0.000
 223  220  222  226 4 180.000 10.460 2
 222  223  237  235 3 2.928800 -1.464400 0.209200 -1.673600 0.000000 0.000000
 222  223  237  238 3 2.928800 -1.464400 0.209200 -1.673600 0.000000 0.000000
 222  223  237  241 3 2.928800 -1.464400 0.209200 -1.673600 0.000000 0.000000
 223  222  226  227 3 -0.778 -2.335 0.000 3.113 -0.000 0.000
 223  222  226  228 3 -0.778 -2.335 0.000 3.113 -0.000 0.000
 223  222  226  229 3 -0.778 -2.335 0.000 3.113 -0.000 0.000
 224  222  223  225 4 180.000 10.460 2
 226  222  223  224 3 58.576 0.000 -58.576 -0.000 -0.000 0.000
 226  222  223  225 3 58.576 0.000 -58.576 -0.000 -0.000 0.000
 226  222  223  237 3 2.928800 -1.464400 0.209200 -1.673600 0.000000 0.000000
 223  237  238  239 3 0.627600 1.882800 0.000000 -2.510400 0.000000 0.000000
 223  237  238  240 3 0.627600 1.882800 0.000000 -2.510400 0.000000 0.000000
 223  237  238  252 3 2.928800 -1.464400 0.209200 -1.673600 0.000000 0.000000
 223  237  241  242 3 0.627600 1.882800 0.000000 -2.510400 0.000000 0.000000
 223  237  241  243 3 0.627600 1.882800 0.000000 -2.510400 0.000000 0.000000
 223  237  241  244 3 0.627600 1.882800 0.000000 -2.510400 0.000000 0.000000
 224  223  237  235 3 0.627600 1.882800 0.000000 -2.510400 0.000000 0.000000
 224  223  237  238 3 0.627600 1.882800 0.000000 -2.510400 0.000000 0.000000
 224  223  237  241 3 0.627600 1.882800 0.000000 -2.510400 0.000000 0.000000
 225  223  237  235 3 0.627600 1.882800 0.000000 -2.510400 0.000000 0.000000
 225  223  237  238 3 0.627600 1.882800 0.000000 -2.510400 0.000000 0.000000
 225  223  237  241 3 0.627600 1.882800 0.000000 -2.510400 0.000000 0.000000
 234  235  237  223 3 2.874410 0.581580 2.092000 -5.547990 0.000000 0.000000
 236  235  237  223 3 2.874410 0.581580 2.092000 -5.547990 0.000000 0.000000
 230  231  234  235 3 0.414 1.243 0.000 -1.657 -0.000 0.000
 231  234  235  236 3 21.439 0.000 -21.439 -0.000 -0.000 0.000
 231  234  235  237 3 31.206 -9.768 -21.439 -0.000 -0.000 0.000
 232  231  234  235 3 0.414 1.243 0.000 -1.657 -0.000 0.000
 233  231  234  235 3 0.414 1.243 0.000 -1.657 -0.000 0.000
 234  235  237  238 3 -5.858 -6.694 12.552 -0.000 -0.000 0.000
 234  235  237  241 3 1.789 -5.052 -0.962 4.226 -0.000 0.000
 236  234  235  237 4 180.000 43.932 2
 235  237  238  239 3 58.576 0.000 -58.576 -0.000 -0.000 0.000
 235  237  238  240 3 58.576 0.000 -58.576 -0.000 -0.000 0.000
 235  237  238  252 3 2.928800 -1.464400 0.209200 -1.673600 0.000000 0.000000
 235  237  241  242 3 -0.778 -2.335 0.000 3.113 -0.000 0.000
 235  237  241  243 3 -0.778 -2.335 0.000 3.113 -0.000 0.000
 235  237  241  244 3 -0.778 -2.335 0.000 3.113 -0.000 0.000
 236  235  237  238 3 30.334 -5.230 -25.104 -0.000 -0.000 0.000
 236  235  237  241 3 1.789 -5.052 -0.962 4.226 -0.000 0.000
 238  235  237  241 4 180.000 10.460 2
 237  238  252  250 3 2.928800 -1.464400 0.209200 -1.673600 0.000000 0.000000
 237  238  252  253 3 2.928800 -1.464400 0.209200 -1.673600 0.000000 0.000000
 237  238  252  256 3 2.928800 -1.464400 0.209200 -1.673600 0.000000 0.000000
 238  237  241  242 3 -0.778 -2.335 0.000 3.113 -0.000 0.000
 238  237  241  243 3 -0.778 -2.335 0.000 3.113 -0.000 0.000
 238  237  241  244 3 -0.778 -2.335 0.000 3.113 -0.000 0.000
 239  237  238  240 4 180.000 10.460 2
 241  237  238  239 3 58.576 0.000 -58.576 -0.000 -0.000 0.000
 241  237  238  240 3 58.576 0.000 -58.576 -0.000 -0.000 0.000
 241  237  238  252 3 2.928800 -1.464400 0.209200 -1.673600 0.000000 0.000000
 238  252  253  254 3 0.627600 1.882800 0.000000 -2.510400 0.000000 0.000000
 238  252  253  255 3 0.627600 1.882800 0.000000 -2.510400 0.000000 0.000000
 238  252  253  267 3 2.928800 -1.464400 0.209200 -1.673600 0.000000 0.000000
 238  252  256  257 3 0.627600 1.882800 0.000000 -2.510400 0.000000 0.000000
 238  252  256  258 3 0.627600 1.882800 0.000000 -2.510400 0.000000 0.000000
 238  252  256  259 3 0.627600 1.882800 0.000000 -2.510400 0.000000 0.000000
 239  238  252  250 3 0.627600 1.882800 0.000000 -2.510400 0.000000 0.000000
 239  238  252  253 3 0.627600 1.882800 0.000000 -2.510400 0.000000 0.000000
 239  238  252  256 3 0.627600 1.882800 0.000000 -2.510400 0.000000 0.000000
 240  238  252  250 3 0.627600 1.882800 0.000000 -2.510400 0.000000 0.000000
 240  238  252  253 3 0.627600 1.882800 0.000000 -2.510400 0.000000 0.000000
 240  238  252  256 3 0.627600 1.882800 0.000000 -2.510400 0.000000 0.000000
 249  250  252  238 3 2.874410 0.581580 2.092000 -5.547990 0.000000 0.000000
 251  250  252  238 3 2.874410 0.581580 2.092000 -5.547990 0.000000 0.000000
 245  246  249  250 3 0.414 1.243 0.000 -1.657 -0.000 0.000
 246  249  250  251 3 21.439 0.000 -21.439 -0.000 -0.000 0.000
 246  249  250  252 3 31.206 -9.768 -21.439 -0.000 -0.000 0.000
 247  246  249  250 3 0.414 1.243 0.000 -1.657 -0.000 0.000
 248  246  249  250 3 0.414 1.243 0.000 -1.657 -0.000 0.000
 249  250  252  253 3 -5.858 -6.694 12.552 -0.000 -0.000 0.000
 249  250  252  256 3 1.789 -5.052 -0.962 4.226 -0.000 0.000
 251  249  250  252 4 180.000 43.932 2
 250  252  253  254 3 58.576 0.000 -58.576 -0.000 -0.000 0.000
 250  252  253  255 3 58.576 0.000 -58.576 -0.000 -0.000 0.000
 250  252  253  267 3 2.928800 -1.464400 0.209200 -1.673600 0.000000 0.000000
 250  252  256  257 3 -0.778 -2.335 0.000 3.113 -0.000 0.000
 250  252  256  258 3 -0.778 -2.335 0.000 3.113 -0.000 0.000
 250  252  256  259 3 -0.778 -2.335 0.000 3.113 -0.000 0.000
 251  250  252  253 3 30.334 -5.230 -25.104 -0.000 -0.000 0.000
 251  250  252  256 3 1.789 -5.052 -0.962 4.226 -0.000 0.000
 253  250  252  256 4 180.000 10.460 2
 252  253  267  265 3 2.928800 -1.464400 0.209200 -1.673600 0.000000 0.000000
 252  253  267  268 3 2.928800 -1.464400 0.209200 -1.673600 0.000000 0.000000
 252  253  267  271 3 2.928800 -1.464400 0.209200 -1.673600 0.000000 0.000000
 253  252  256  257 3 -0.778 -2.335 0.000 3.113 -0.000 0.000
 253  252  256  258 3 -0.778 -2.335 0.000 3.113 -0.000 0.000
 253  252  256  259 3 -0.778 -2.335 0.000 3.113 -0.000 0.000
 254  252  253  255 4 180.000 10.460 2
 256  252  253  254 3 58.576 0.000 -58.576 -0.000 -0.000 0.000
 256  252  253  255 3 58.576 0.000 -58.576 -0.000 -0.000 0.000
 256  252  253  267 3 2.928800 -1.464400 0.209200 -1.673600 0.000000 0.000000
 253  267  268  269 3 0.627600 1.882800 0.000000 -2.510400 0.000000 0.000000
 253  267  268  270 3 0.627600 1.882800 0.000000 -2.510400 0.000000 0.000000
 253  267  268  282 3 2.928800 -1.464400 0.209200 -1.673600 0.000000 0.000000
 253  267  271  272 3 0.627600 1.882800 0.000000 -2.510400 0.000000 0.000000
 253  267  271  273 3 0.627600 1.882800 0.000000 -2.510400 0.000000 0.000000
 253  267  271  274 3 0.627600 1.882800 0.000000 -2.510400 0.000000 0.000000
 254  253  267  265 3 0.627600 1.882800 0.000000 -2.510400 0.000000 0.000000
 254  253  267  268 3 0.627600 1.882800 0.000000 -2.510400 0.000000 0.000000
 254  253  267  271 3 0.627600 1.882800 0.000000 -2.510400 0.000000 0.000000
 255  253  267  265 3 0.627600 1.882800 0.000000 -2.510400 0.000000 0.000000
 255  253  267  268 3 0.627600 1.882800 0.000000 -2.510400 0.000000 0.000000
 255  253  267  271 3 0.627600 1.882800 0.000000 -2.510400 0.000000 0.000000
 264  265  267  253 3 2.874410 0.581580 2.092000 -5.547990 0.000000 0.000000
 266  265  267  253 3 2.874410 0.581580 2.092000 -5.547990 0.000000 0.000000
 260  261  264  265 3 0.414 1.243 0.000 -1.657 -0.000 0.000
 261  264  265  266 3 21.439 0.000 -21.439 -0.000 -0.000 0.000
 261  264  265  267 3 31.206 -9.768 -21.439 -0.000 -0.000 0.000
 262  261  264  265 3 0.414 1.243 0.000 -1.657 -0.000 0.000
 263  261  264  265 3 0.414 1.243 0.000 -1.657 -0.000 0.000
 264  265  267  268 3 -5.858 -6.694 12.552 -0.000 -0.000 0.000
 264  265  267  271 3 1.789 -5.052 -0.962 4.226 -0.000 0.000
 266  264  265  267 4 180.000 43.932 2
 265  267  268  269 3 58.576 0.000 -58.576 -0.000 -0.000 0.000
 265  267  268  270 3 58.576 0.000 -58.576 -0.000 -0.000 0.000
 265  267  268  282 3 2.928800 -1.464400 0.209200 -1.673600 0.000000 0.000000
 265  267  271  272 3 -0.778 -2.335 0.000 3.113 -0.000 0.000
 265  267  271  273 3 -0.778 -2.335 0.000 3.113 -0.000 0.000
 265  267  271  274 3 -0.778 -2.335 0.000 3.113 -0.000 0.000
 266  265  267  268 3 30.334 -5.230 -25.104 -0.000 -0.000 0.000
 266  265  267  271 3 1.789 -5.052 -0.962 4.226 -0.000 0.000
 268  265  267  271 4 180.000 10.460 2
 267  268  282  280 3 2.928800 -1.464400 0.209200 -1.673600 0.000000 0.000000
 267  268  282  283 3 2.928800 -1.464400 0.209200 -1.673600 0.000000 0.000000
 267  268  282  286 3 2.928800 -1.464400 0.209200 -1.673600 0.000000 0.000000
 268  267  271  272 3 -0.778 -2.335 0.000 3.113 -0.000 0.000
 268  267  271  273 3 -0.778 -2.335 0.000 3.113 -0.000 0.000
 268  267  271  274 3 -0.778 -2.335 0.000 3.113 -0.000 0.000
 269  267  268  270 4 180.000 10.460 2
 271  267  268  269 3 58.576 0.000 -58.576 -0.000 -0.000 0.000
 271  267  268  270 3 58.576 0.000 -58.576 -0.000 -0.000 0.000
 271  267  268  282 3 2.928800 -1.464400 0.209200 -1.673600 0.000000 0.000000
 268  282  283  284 3 0.627600 1.882800 0.000000 -2.510400 0.000000 0.000000
 268  282  283  285 3 0.627600 1.882800 0.000000 -2.510400 0.000000 0.000000
 268  282  283  297 3 2.928800 -1.464400 0.209200 -1.673600 0.000000 0.000000
 268  282  286  287 3 0.627600 1.882800 0.000000 -2.510400 0.000000 0.000000
 268  282  286  288 3 0.627600 1.882800 0.000000 -2.510400 0.000000 0.000000
 268  282  286  289 3 0.627600 1.882800 0.000000 -2.510400 0.000000 0.000000
 269  268  282  280 3 0.627600 1.882800 0.000000 -2.510400 0.000000 0.000000
 269  268  282  283 3 0.627600 1.882800 0.000000 -2.510400 0.000000 0.000000
 269  268  282  286 3 0.627600 1.882800 0.000000 -2.510400 0.000000 0.000000
 270  268  282  280 3 0.627600 1.882800 0.000000 -2.510400 0.000000 0.000000
 270  268  282  283 3 0.627600 1.882800 0.000000 -2.510400 0.000000 0.000000
 270  268  282  286 3 0.627600 1.882800 0.000000 -2.510400 0.000000 0.000000
 279  280  282  268 3 2.874410 0.581580 2.092000 -5.547990 0.000000 0.000000
 281  280  282  268 3 2.874410 0.581580 2.092000 -5.547990 0.000000 0.000000
 275  276  279  280 3 0.414 1.243 0.000 -1.657 -0.000 0.000
 276  279  280  281 3 21.439 0.000 -21.439 -0.000 -0.000 0.000
 276  279  280  282 3 31.206 -9.768 -21.439 -0.000 -0.000 0.000
 277  276  279  280 3 0.414 1.243 0.000 -1.657 -0.000 0.000
 278  276  279  280 3 0.414 1.243 0.000 -1.657 -0.000 0.000
 279  280  282  283 3 -5.858 -6.694 12.552 -0.000 -0.000 0.000
 279  280  282  286 3 1.789 -5.052 -0.962 4.226 -0.000 0.000
 281  279  280  282 4 180.000 43.932 2
 280  282  283  284 3 58.576 0.000 -58.576 -0.000 -0.000 0.000
 280  282  283  285 3 58.576 0.000 -58.576 -0.000 -0.000 0.000
 280  282  283  297 3 2.928800 -1.464400 0.209200 -1.673600 0.000000 0.000000
 280  282  286  287 3 -0.778 -2.335 0.000 3.113 -0.000 0.000
 280  282  286  288 3 -0.778 -2.335 0.000 3.113 -0.000 0.000
 280  282  286  289 3 -0.778 -2.335 0.000 3.113 -0.000 0.000
 281  280  282  283 3 30.334 -5.230 -25.104 -0.000 -0.000 0.000
 281  280  282  286 3 1.789 -5.052 -0.962 4.226 -0.000 0.000
 283  280  282  286 4 180.000 10.460 2
 282  283  297  295 3 2.928800 -1.464400 0.209200 -1.673600 0.000000 0.000000
 282  283  297  298 3 2.928800 -1.464400 0.209200 -1.673600 0.000000 0.000000
 282  283  297  301 3 2.928800 -1.464400 0.209200 -1.673600 0.000000 0.000000
 283  282  286  287 3 -0.778 -2.335 0.000 3.113 -0.000 0.000
 283  282  286  288 3 -0.778 -2.335 0.000 3.113 -0.000 0.000
 283  282  286  289 3 -0.778 -2.335 0.000 3.113 -0.000 0.000
 284  282  283  285 4 180.000 10.460 2
 286  282  283  284 3 58.576 0.000 -58.576 -0.000 -0.000 0.000
 286  282  283  285 3 58.576 0.000 -58.576 -0.000 -0.000 0.000
 286  282  283  297 3 2.928800 -1.464400 0.209200 -1.673600 0.000000 0.000000
 283  297  298  299 3 0.627600 1.882800 0.000000 -2.510400 0.000000 0.000000
 283  297  298  300 3 0.627600 1.882800 0.000000 -2.510400 0.000000 0.000000
 283  297  298  312 3 2.928800 -1.464400 0.209200 -1.673600 0.000000 0.000000
 283  297  301  302 3 0.627600 1.882800 0.000000 -2.510400 0.000000 0.000000
 283  297  301  303 3 0.627600 1.882800 0.000000 -2.510400 0.000000 0.000000
 283  297  301  304 3 0.627600 1.882800 0.000000 -2.510400 0.000000 0.000000
 284  283  297  295 3 0.627600 1.882800 0.000000 -2.510400 0.000000 0.000000
 284  283  297  298 3 0.627600 1.882800 0.000000 -2.510400 0.000000 0.000000
 284  283  297  301 3 0.627600 1.882800 0.000000 -2.510400 0.000000 0.000000
 285  283  297  295 3 0.627600 1.882800 0.000000 -2.510400 0.000000 0.000000
 285  283  297  298 3 0.627600 1.882800 0.000000 -2.510400 0.000000 0.000000
 285  283  297  301 3 0.627600 1.882800 0.000000 -2.510400 0.000000 0.000000
 294  295  297  283 3 2.874410 0.581580 2.092000 -5.547990 0.000000 0.000000
 296  295  297  283 3 2.874410 0.581580 2.092000 -5.547990 0.000000 0.000000
 290  291  294  295 3 0.414 1.243 0.000 -1.657 -0.000 0.000
 291  294  295  296 3 21.439 0.000 -21.439 -0.000 -0.000 0.000
 291  294  295  297 3 31.206 -9.768 -21.439 -0.000 -0.000 0.000
 292  291  294  295 3 0.414 1.243 0.000 -1.657 -0.000 0.000
 293  291  294  295 3 0.414 1.243 0.000 -1.657 -0.000 0.000
 294  295  297  298 3 -5.858 -6.694 12.552 -0.000 -0.000 0.000
 294  295  297  301 3 1.789 -5.052 -0.962 4.226 -0.000 0.000
 296  294  295  297 4 180.000 43.932 2
 295  297  298  299 3 58.576 0.000 -58.576 -0.000 -0.000 0.000
 295  297  298  300 3 58.576 0.000 -58.576 -0.000 -0.000 0.000
 295  297  298  312 3 2.928800 -1.464400 0.209200 -1.673600 0.000000 0.000000
 295  297  301  302 3 -0.778 -2.335 0.000 3.113 -0.000 0.000
 295  297  301  303 3 -0.778 -2.335 0.000 3.113 -0.000 0.000
 295  297  301  304 3 -0.778 -2.335 0.000 3.113 -0.000 0.000
 296  295  297  298 3 30.334 -5.230 -25.104 -0.000 -0.000 0.000
 296  295  297  301 3 1.789 -5.052 -0.962 4.226 -0.000 0.000
 298  295  297  301 4 180.000 10.460 2
 297  298  312  310 3 2.928800 -1.464400 0.209200 -1.673600 0.000000 0.000000
 297  298  312  313 3 2.928800 -1.464400 0.209200 -1.673600 0.000000 0.000000
 297  298  312  316 3 2.928800 -1.464400 0.209200 -1.673600 0.000000 0.000000
 298  297  301  302 3 -0.778 -2.335 0.000 3.113 -0.000 0.000
 298  297  301  303 3 -0.778 -2.335 0.000 3.113 -0.000 0.000
 298  297  301  304 3 -0.778 -2.335 0.000 3.113 -0.000 0.000
 299  297  298  300 4 180.000 10.460 2
 301  297  298  299 3 58.576 0.000 -58.576 -0.000 -0.000 0.000
 301  297  298  300 3 58.576 0.000 -58.576 -0.000 -0.000 0.000
 301  297  298  312 3 2.928800 -1.464400 0.209200 -1.673600 0.000000 0.000000
 298  312  313  314 3 0.627600 1.882800 0.000000 -2.510400 0.000000 0.000000
 298  312  313  315 3 0.627600 1.882800 0.000000 -2.510400 0.000000 0.000000
 298  312  313  327 3 2.928800 -1.464400 0.209200 -1.673600 0.000000 0.000000
 298  312  316  317 3 0.627600 1.882800 0.000000 -2.510400 0.000000 0.000000
 298  312  316  318 3 0.627600 1.882800 0.000000 -2.510400 0.000000 0.000000
 298  312  316  319 3 0.627600 1.882800 0.000000 -2.510400 0.000000 0.000000
 299  298  312  310 3 0.627600 1.882800 0.000000 -2.510400 0.000000 0.000000
 299  298  312  313 3 0.627600 1.882800 0.000000 -2.510400 0.000000 0.000000
 299  298  312  316 3 0.627600 1.882800 0.000000 -2.510400 0.000000 0.000000
 300  298  312  310 3 0.627600 1.882800 0.000000 -2.510400 0.000000 0.000000
 300  298  312  313 3 0.627600 1.882800 0.000000 -2.510400 0.000000 0.000000
 300  298  312  316 3 0.627600 1.882800 0.000000 -2.510400 0.000000 0.000000
 309  310  312  298 3 2.874410 0.581580 2.092000 -5.547990 0.000000 0.000000
 311  310  312  298 3 2.874410 0.581580 2.092000 -5.547990 0.000000 0.000000
 305  306  309  310 3 0.414 1.243 0.000 -1.657 -0.000 0.000
 306  309  310  311 3 21.439 0.000 -21.439 -0.000 -0.000 0.000
 306  309  310  312 3 31.206 -9.768 -21.439 -0.000 -0.000 0.000
 307  306  309  310 3 0.414 1.243 0.000 -1.657 -0.000 0.000
 308  306  309  310 3 0.414 1.243 0.000 -1.657 -0.000 0.000
 309  310  312  313 3 -5.858 -6.694 12.552 -0.000 -0.000 0.000
 309  310  312  316 3 1.789 -5.052 -0.962 4.226 -0.000 0.000
 311  309  310  312 4 180.000 43.932 2
 310  312  313  314 3 58.576 0.000 -58.576 -0.000 -0.000 0.000
 310  312  313  315 3 58.576 0.000 -58.576 -0.000 -0.000 0.000
 310  312  313  327 3 2.928800 -1.464400 0.209200 -1.673600 0.000000 0.000000
 310  312  316  317 3 -0.778 -2.335 0.000 3.113 -0.000 0.000
 310  312  316  318 3 -0.778 -2.335 0.000 3.113 -0.000 0.000
 310  312  316  319 3 -0.778 -2.335 0.000 3.113 -0.000 0.000
 311  310  312  313 3 30.334 -5.230 -25.104 -0.000 -0.000 0.000
 311  310  312  316 3 1.789 -5.052 -0.962 4.226 -0.000 0.000
 313  310  312  316 4 180.000 10.460 2
 312  313  327  325 3 2.928800 -1.464400 0.209200 -1.673600 0.000000 0.000000
 312  313  327  328 3 2.928800 -1.464400 0.209200 -1.673600 0.000000 0.000000
 312  313  327  331 3 2.928800 -1.464400 0.209200 -1.673600 0.000000 0.000000
 313  312  316  317 3 -0.778 -2.335 0.000 3.113 -0.000 0.000
 313  312  316  318 3 -0.778 -2.335 0.000 3.113 -0.000 0.000
 313  312  316  319 3 -0.778 -2.335 0.000 3.113 -0.000 0.000
 314  312  313  315 4 180.000 10.460 2
 316  312  313  314 3 58.576 0.000 -58.576 -0.000 -0.000 0.000
 316  312  313  315 3 58.576 0.000 -58.576 -0.000 -0.000 0.000
 316  312  313  327 3 2.928800 -1.464400 0.209200 -1.673600 0.000000 0.000000
 313  327  328  329 3 0.627600 1.882800 0.000000 -2.510400 0.000000 0.000000
 313  327  328  330 3 0.627600 1.882800 0.000000 -2.510400 0.000000 0.000000
 313  327  328  342 3 2.928800 -1.464400 0.209200 -1.673600 0.000000 0.000000
 313  327  331  332 3 0.627600 1.882800 0.000000 -2.510400 0.000000 0.000000
 313  327  331  333 3 0.627600 1.882800 0.000000 -2.510400 0.000000 0.000000
 313  327  331  334 3 0.627600 1.882800 0.000000 -2.510400 0.000000 0.000000
 314  313  327  325 3 0.627600 1.882800 0.000000 -2.510400 0.000000 0.000000
 314  313  327  328 3 0.627600 1.882800 0.000000 -2.510400 0.000000 0.000000
 314  313  327  331 3 0.627600 1.882800 0.000000 -2.510400 0.000000 0.000000
 315  313  327  325 3 0.627600 1.882800 0.000000 -2.510400 0.000000 0.000000
 315  313  327  328 3 0.627600 1.882800 0.000000 -2.510400 0.000000 0.000000
 315  313  327  331 3 0.627600 1.882800 0.000000 -2.510400 0.000000 0.000000
 324  325  327  313 3 2.874410 0.581580 2.092000 -5.547990 0.000000 0.000000
 326  325  327  313 3 2.874410 0.581580 2.092000 -5.547990 0.000000 0.000000
 320  321  324  325 3 0.414 1.243 0.000 -1.657 -0.000 0.000
 321  324  325  326 3 21.439 0.000 -21.439 -0.000 -0.000 0.000
 321  324  325  327 3 31.206 -9.768 -21.439 -0.000 -0.000 0.000
 322  321  324  325 3 0.414 1.243 0.000 -1.657 -0.000 0.000
 323  321  324  325 3 0.414 1.243 0.000 -1.657 -0.000 0.000
 324  325  327  328 3 -5.858 -6.694 12.552 -0.000 -0.000 0.000
 324  325  327  331 3 1.789 -5.052 -0.962 4.226 -0.000 0.000
 326  324  325  327 4 180.000 43.932 2
 325  327  328  329 3 58.576 0.000 -58.576 -0.000 -0.000 0.000
 325  327  328  330 3 58.576 0.000 -58.576 -0.000 -0.000 0.000
 325  327  328  342 3 2.928800 -1.464400 0.209200 -1.673600 0.000000 0.000000
 325  327  331  332 3 -0.778 -2.335 0.000 3.113 -0.000 0.000
 325  327  331  333 3 -0.778 -2.335 0.000 3.113 -0.000 0.000
 325  327  331  334 3 -0.778 -2.335 0.000 3.113 -0.000 0.000
 326  325  327  328 3 30.334 -5.230 -25.104 -0.000 -0.000 0.000
 326  325  327  331 3 1.789 -5.052 -0.962 4.226 -0.000 0.000
 328  325  327  331 4 180.000 10.460 2
 327  328  342  340 3 2.928800 -1.464400 0.209200 -1.673600 0.000000 0.000000
 327  328  342  343 3 2.928800 -1.464400 0.209200 -1.673600 0.000000 0.000000
 327  328  342  346 3 2.928800 -1.464400 0.209200 -1.673600 0.000000 0.000000
 328  327  331  332 3 -0.778 -2.335 0.000 3.113 -0.000 0.000
 328  327  331  333 3 -0.778 -2.335 0.000 3.113 -0.000 0.000
 328  327  331  334 3 -0.778 -2.335 0.000 3.113 -0.000 0.000
 329  327  328  330 4 180.000 10.460 2
 331  327  328  329 3 58.576 0.000 -58.576 -0.000 -0.000 0.000
 331  327  328  330 3 58.576 0.000 -58.576 -0.000 -0.000 0.000
 331  327  328  342 3 2.928800 -1.464400 0.209200 -1.673600 0.000000 0.000000
 328  342  343  344 3 0.627600 1.882800 0.000000 -2.510400 0.000000 0.000000
 328  342  343  345 3 0.627600 1.882800 0.000000 -2.510400 0.000000 0.000000
 328  342  343  357 3 2.928800 -1.464400 0.209200 -1.673600 0.000000 0.000000
 328  342  346  347 3 0.627600 1.882800 0.000000 -2.510400 0.000000 0.000000
 328  342  346  348 3 0.627600 1.882800 0.000000 -2.510400 0.000000 0.000000
 328  342  346  349 3 0.627600 1.882800 0.000000 -2.510400 0.000000 0.000000
 329  328  342  340 3 0.627600 1.882800 0.000000 -2.510400 0.000000 0.000000
 329  328  342  343 3 0.627600 1.882800 0.000000 -2.510400 0.000000 0.000000
 329  328  342  346 3 0.627600 1.882800 0.000000 -2.510400 0.000000 0.000000
 330  328  342  340 3 0.627600 1.882800 0.000000 -2.510400 0.000000 0.000000
 330  328  342  343 3 0.627600 1.882800 0.000000 -2.510400 0.000000 0.000000
 330  328  342  346 3 0.627600 1.882800 0.000000 -2.510400 0.000000 0.000000
 339  340  342  328 3 2.874410 0.581580 2.092000 -5.547990 0.000000 0.000000
 341  340  342  328 3 2.874410 0.581580 2.092000 -5.547990 0.000000 0.000000
 335  336  339  340 3 0.414 1.243 0.000 -1.657 -0.000 0.000
 336  339  340  341 3 21.439 0.000 -21.439 -0.000 -0.000 0.000
 336  339  340  342 3 31.206 -9.768 -21.439 -0.000 -0.000 0.000
 337  336  339  340 3 0.414 1.243 0.000 -1.657 -0.000 0.000
 338  336  339  340 3 0.414 1.243 0.000 -1.657 -0.000 0.000
 339  340  342  343 3 -5.858 -6.694 12.552 -0.000 -0.000 0.000
 339  340  342  346 3 1.789 -5.052 -0.962 4.226 -0.000 0.000
 341  339  340  342 4 180.000 43.932 2
 340  342  343  344 3 58.576 0.000 -58.576 -0.000 -0.000 0.000
 340  342  343  345 3 58.576 0.000 -58.576 -0.000 -0.000 0.000
 340  342  343  357 3 2.928800 -1.464400 0.209200 -1.673600 0.000000 0.000000
 340  342  346  347 3 -0.778 -2.335 0.000 3.113 -0.000 0.000
 340  342  346  348 3 -0.778 -2.335 0.000 3.113 -0.000 0.000
 340  342  346  349 3 -0.778 -2.335 0.000 3.113 -0.000 0.000
 341  340  342  343 3 30.334 -5.230 -25.104 -0.000 -0.000 0.000
 341  340  342  346 3 1.789 -5.052 -0.962 4.226 -0.000 0.000
 343  340  342  346 4 180.000 10.460 2
 342  343  357  355 3 2.928800 -1.464400 0.209200 -1.673600 0.000000 0.000000
 342  343  357  358 3 2.928800 -1.464400 0.209200 -1.673600 0.000000 0.000000
 342  343  357  361 3 2.928800 -1.464400 0.209200 -1.673600 0.000000 0.000000
 343  342  346  347 3 -0.778 -2.335 0.000 3.113 -0.000 0.000
 343  342  346  348 3 -0.778 -2.335 0.000 3.113 -0.000 0.000
 343  342  346  349 3 -0.778 -2.335 0.000 3.113 -0.000 0.000
 344  342  343  345 4 180.000 10.460 2
 346  342  343  344 3 58.576 0.000 -58.576 -0.000 -0.000 0.000
 346  342  343  345 3 58.576 0.000 -58.576 -0.000 -0.000 0.000
 346  342  343  357 3 2.928800 -1.464400 0.209200 -1.673600 0.000000 0.000000
 343  357  358  359 3 0.627600 1.882800 0.000000 -2.510400 0.000000 0.000000
 343  357  358  360 3 0.627600 1.882800 0.000000 -2.510400 0.000000 0.000000
 343  357  358  372 3 2.928800 -1.464400 0.209200 -1.673600 0.000000 0.000000
 343  357  361  362 3 0.627600 1.882800 0.000000 -2.510400 0.000000 0.000000
 343  357  361  363 3 0.627600 1.882800 0.000000 -2.510400 0.000000 0.000000
 343  357  361  364 3 0.627600 1.882800 0.000000 -2.510400 0.000000 0.000000
 344  343  357  355 3 0.627600 1.882800 0.000000 -2.510400 0.000000 0.000000
 344  343  357  358 3 0.627600 1.882800 0.000000 -2.510400 0.000000 0.000000
 344  343  357  361 3 0.627600 1.882800 0.000000 -2.510400 0.000000 0.000000
 345  343  357  355 3 0.627600 1.882800 0.000000 -2.510400 0.000000 0.000000
 345  343  357  358 3 0.627600 1.882800 0.000000 -2.510400 0.000000 0.000000
 345  343  357  361 3 0.627600 1.882800 0.000000 -2.510400 0.000000 0.000000
 354  355  357  343 3 2.874410 0.581580 2.092000 -5.547990 0.000000 0.000000
 356  355  357  343 3 2.874410 0.581580 2.092000 -5.547990 0.000000 0.000000
 350  351  354  355 3 0.414 1.243 0.000 -1.657 -0.000 0.000
 351  354  355  356 3 21.439 0.000 -21.439 -0.000 -0.000 0.000
 351  354  355  357 3 31.206 -9.768 -21.439 -0.000 -0.000 0.000
 352  351  354  355 3 0.414 1.243 0.000 -1.657 -0.000 0.000
 353  351  354  355 3 0.414 1.243 0.000 -1.657 -0.000 0.000
 354  355  357  358 3 -5.858 -6.694 12.552 -0.000 -0.000 0.000
 354  355  357  361 3 1.789 -5.052 -0.962 4.226 -0.000 0.000
 356  354  355  357 4 180.000 43.932 2
 355  357  358  359 3 58.576 0.000 -58.576 -0.000 -0.000 0.000
 355  357  358  360 3 58.576 0.000 -58.576 -0.000 -0.000 0.000
 355  357  358  372 3 2.928800 -1.464400 0.209200 -1.673600 0.000000 0.000000
 355  357  361  362 3 -0.778 -2.335 0.000 3.113 -0.000 0.000
 355  357  361  363 3 -0.778 -2.335 0.000 3.113 -0.000 0.000
 355  357  361  364 3 -0.778 -2.335 0.000 3.113 -0.000 0.000
 356  355  357  358 3 30.334 -5.230 -25.104 -0.000 -0.000 0.000
 356  355  357  361 3 1.789 -5.052 -0.962 4.226 -0.000 0.000
 358  355  357  361 4 180.000 10.460 2
 357  358  372  370 3 2.928800 -1.464400 0.209200 -1.673600 0.000000 0.000000
 357  358  372  373 3 2.928800 -1.464400 0.209200 -1.673600 0.000000 0.000000
 357  358  372  376 3 2.928800 -1.464400 0.209200 -1.673600 0.000000 0.000000
 358  357  361  362 3 -0.778 -2.335 0.000 3.113 -0.000 0.000
 358  357  361  363 3 -0.778 -2.335 0.000 3.113 -0.000 0.000
 358  357  361  364 3 -0.778 -2.335 0.000 3.113 -0.000 0.000
 359  357  358  360 4 180.000 10.460 2
 361  357  358  359 3 58.576 0.000 -58.576 -0.000 -0.000 0.000
 361  357  358  360 3 58.576 0.000 -58.576 -0.000 -0.000 0.000
 361  357  358  372 3 2.928800 -1.464400 0.209200 -1.673600 0.000000 0.000000
 358  372  373  374 3 0.627600 1.882800 0.000000 -2.510400 0.000000 0.000000
 358  372  373  375 3 0.627600 1.882800 0.000000 -2.510400 0.000000 0.000000
 358  372  373  387 3 2.928800 -1.464400 0.209200 -1.673600 0.000000 0.000000
 358  372  376  377 3 0.627600 1.882800 0.000000 -2.510400 0.000000 0.000000
 358  372  376  378 3 0.627600 1.882800 0.000000 -2.510400 0.000000 0.000000
 358  372  376  379 3 0.627600 1.882800 0.000000 -2.510400 0.000000 0.000000
 359  358  372  370 3 0.627600 1.882800 0.000000 -2.510400 0.000000 0.000000
 359  358  372  373 3 0.627600 1.882800 0.000000 -2.510400 0.000000 0.000000
 359  358  372  376 3 0.627600 1.882800 0.000000 -2.510400 0.000000 0.000000
 360  358  372  370 3 0.627600 1.882800 0.000000 -2.510400 0.000000 0.000000
 360  358  372  373 3 0.627600 1.882800 0.000000 -2.510400 0.000000 0.000000
 360  358  372  376 3 0.627600 1.882800 0.000000 -2.510400 0.000000 0.000000
 369  370  372  358 3 2.874410 0.581580 2.092000 -5.547990 0.000000 0.000000
 371  370  372  358 3 2.874410 0.581580 2.092000 -5.547990 0.000000 0.000000
 365  366  369  370 3 0.414 1.243 0.000 -1.657 -0.000 0.000
 366  369  370  371 3 21.439 0.000 -21.439 -0.000 -0.000 0.000
 366  369  370  372 3 31.206 -9.768 -21.439 -0.000 -0.000 0.000
 367  366  369  370 3 0.414 1.243 0.000 -1.657 -0.000 0.000
 368  366  369  370 3 0.414 1.243 0.000 -1.657 -0.000 0.000
 369  370  372  373 3 -5.858 -6.694 12.552 -0.000 -0.000 0.000
 369  370  372  376 3 1.789 -5.052 -0.962 4.226 -0.000 0.000
 371  369  370  372 4 180.000 43.932 2
 370  372  373  374 3 58.576 0.000 -58.576 -0.000 -0.000 0.000
 370  372  373  375 3 58.576 0.000 -58.576 -0.000 -0.000 0.000
 370  372  373  387 3 2.928800 -1.464400 0.209200 -1.673600 0.000000 0.000000
 370  372  376  377 3 -0.778 -2.335 0.000 3.113 -0.000 0.000
 370  372  376  378 3 -0.778 -2.335 0.000 3.113 -0.000 0.000
 370  372  376  379 3 -0.778 -2.335 0.000 3.113 -0.000 0.000
 371  370  372  373 3 30.334 -5.230 -25.104 -0.000 -0.000 0.000
 371  370  372  376 3 1.789 -5.052 -0.962 4.226 -0.000 0.000
 373  370  372  376 4 180.000 10.460 2
 372  373  387  385 3 2.928800 -1.464400 0.209200 -1.673600 0.000000 0.000000
 372  373  387  388 3 2.928800 -1.464400 0.209200 -1.673600 0.000000 0.000000
 372  373  387  391 3 2.928800 -1.464400 0.209200 -1.673600 0.000000 0.000000
 373  372  376  377 3 -0.778 -2.335 0.000 3.113 -0.000 0.000
 373  372  376  378 3 -0.778 -2.335 0.000 3.113 -0.000 0.000
 373  372  376  379 3 -0.778 -2.335 0.000 3.113 -0.000 0.000
 374  372  373  375 4 180.000 10.460 2
 376  372  373  374 3 58.576 0.000 -58.576 -0.000 -0.000 0.000
 376  372  373  375 3 58.576 0.000 -58.576 -0.000 -0.000 0.000
 376  372  373  387 3 2.928800 -1.464400 0.209200 -1.673600 0.000000 0.000000
 373  387  388  389 3 0.627600 1.882800 0.000000 -2.510400 0.000000 0.000000
 373  387  388  390 3 0.627600 1.882800 0.000000 -2.510400 0.000000 0.000000
 373  387  388  402 3 2.928800 -1.464400 0.209200 -1.673600 0.000000 0.000000
 373  387  391  392 3 0.627600 1.882800 0.000000 -2.510400 0.000000 0.000000
 373  387  391  393 3 0.627600 1.882800 0.000000 -2.510400 0.000000 0.000000
 373  387  391  394 3 0.627600 1.882800 0.000000 -2.510400 0.000000 0.000000
 374  373  387  385 3 0.627600 1.882800 0.000000 -2.510400 0.000000 0.000000
 374  373  387  388 3 0.627600 1.882800 0.000000 -2.510400 0.000000 0.000000
 374  373  387  391 3 0.627600 1.882800 0.000000 -2.510400 0.000000 0.000000
 375  373  387  385 3 0.627600 1.882800 0.000000 -2.510400 0.000000 0.000000
 375  373  387  388 3 0.627600 1.882800 0.000000 -2.510400 0.000000 0.000000
 375  373  387  391 3 0.627600 1.882800 0.000000 -2.510400 0.000000 0.000000
 384  385  387  373 3 2.874410 0.581580 2.092000 -5.547990 0.000000 0.000000
 386  385  387  373 3 2.874410 0.581580 2.092000 -5.547990 0.000000 0.000000
 380  381  384  385 3 0.414 1.243 0.000 -1.657 -0.000 0.000
 381  384  385  386 3 21.439 0.000 -21.439 -0.000 -0.000 0.000
 381  384  385  387 3 31.206 -9.768 -21.439 -0.000 -0.000 0.000
 382  381  384  385 3 0.414 1.243 0.000 -1.657 -0.000 0.000
 383  381  384  385 3 0.414 1.243 0.000 -1.657 -0.000 0.000
 384  385  387  388 3 -5.858 -6.694 12.552 -0.000 -0.000 0.000
 384  385  387  391 3 1.789 -5.052 -0.962 4.226 -0.000 0.000
 386  384  385  387 4 180.000 43.932 2
 385  387  388  389 3 58.576 0.000 -58.576 -0.000 -0.000 0.000
 385  387  388  390 3 58.576 0.000 -58.576 -0.000 -0.000 0.000
 385  387  388  402 3 2.928800 -1.464400 0.209200 -1.673600 0.000000 0.000000
 385  387  391  392 3 -0.778 -2.335 0.000 3.113 -0.000 0.000
 385  387  391  393 3 -0.778 -2.335 0.000 3.113 -0.000 0.000
 385  387  391  394 3 -0.778 -2.335 0.000 3.113 -0.000 0.000
 386  385  387  388 3 30.334 -5.230 -25.104 -0.000 -0.000 0.000
 386  385  387  391 3 1.789 -5.052 -0.962 4.226 -0.000 0.000
 388  385  387  391 4 180.000 10.460 2
 387  388  402  400 3 2.928800 -1.464400 0.209200 -1.673600 0.000000 0.000000
 387  388  402  403 3 2.928800 -1.464400 0.209200 -1.673600 0.000000 0.000000
 387  388  402  406 3 2.928800 -1.464400 0.209200 -1.673600 0.000000 0.000000
 388  387  391  392 3 -0.778 -2.335 0.000 3.113 -0.000 0.000
 388  387  391  393 3 -0.778 -2.335 0.000 3.113 -0.000 0.000
 388  387  391  394 3 -0.778 -2.335 0.000 3.113 -0.000 0.000
 389  387  388  390 4 180.000 10.460 2
 391  387  388  389 3 58.576 0.000 -58.576 -0.000 -0.000 0.000
 391  387  388  390 3 58.576 0.000 -58.576 -0.000 -0.000 0.000
 391  387  388  402 3 2.928800 -1.464400 0.209200 -1.673600 0.000000 0.000000
 388  402  403  404 3 0.627600 1.882800 0.000000 -2.510400 0.000000 0.000000
 388  402  403  405 3 0.627600 1.882800 0.000000 -2.510400 0.000000 0.000000
 388  402  403  417 3 2.928800 -1.464400 0.209200 -1.673600 0.000000 0.000000
 388  402  406  407 3 0.627600 1.882800 0.000000 -2.510400 0.000000 0.000000
 388  402  406  408 3 0.627600 1.882800 0.000000 -2.510400 0.000000 0.000000
 388  402  406  409 3 0.627600 1.882800 0.000000 -2.510400 0.000000 0.000000
 389  388  402  400 3 0.627600 1.882800 0.000000 -2.510400 0.000000 0.000000
 389  388  402  403 3 0.627600 1.882800 0.000000 -2.510400 0.000000 0.000000
 389  388  402  406 3 0.627600 1.882800 0.000000 -2.510400 0.000000 0.000000
 390  388  402  400 3 0.627600 1.882800 0.000000 -2.510400 0.000000 0.000000
 390  388  402  403 3 0.627600 1.882800 0.000000 -2.510400 0.000000 0.000000
 390  388  402  406 3 0.627600 1.882800 0.000000 -2.510400 0.000000 0.000000
 399  400  402  388 3 2.874410 0.581580 2.092000 -5.547990 0.000000 0.000000
 401  400  402  388 3 2.874410 0.581580 2.092000 -5.547990 0.000000 0.000000
 395  396  399  400 3 0.414 1.243 0.000 -1.657 -0.000 0.000
 396  399  400  401 3 21.439 0.000 -21.439 -0.000 -0.000 0.000
 396  399  400  402 3 31.206 -9.768 -21.439 -0.000 -0.000 0.000
 397  396  399  400 3 0.414 1.243 0.000 -1.657 -0.000 0.000
 398  396  399  400 3 0.414 1.243 0.000 -1.657 -0.000 0.000
 399  400  402  403 3 -5.858 -6.694 12.552 -0.000 -0.000 0.000
 399  400  402  406 3 1.789 -5.052 -0.962 4.226 -0.000 0.000
 401  399  400  402 4 180.000 43.932 2
 400  402  403  404 3 58.576 0.000 -58.576 -0.000 -0.000 0.000
 400  402  403  405 3 58.576 0.000 -58.576 -0.000 -0.000 0.000
 400  402  403  417 3 2.928800 -1.464400 0.209200 -1.673600 0.000000 0.000000
 400  402  406  407 3 -0.778 -2.335 0.000 3.113 -0.000 0.000
 400  402  406  408 3 -0.778 -2.335 0.000 3.113 -0.000 0.000
 400  402  406  409 3 -0.778 -2.335 0.000 3.113 -0.000 0.000
 401  400  402  403 3 30.334 -5.230 -25.104 -0.000 -0.000 0.000
 401  400  402  406 3 1.789 -5.052 -0.962 4.226 -0.000 0.000
 403  400  402  406 4 180.000 10.460 2
 402  403  417  415 3 2.928800 -1.464400 0.209200 -1.673600 0.000000 0.000000
 402  403  417  418 3 2.928800 -1.464400 0.209200 -1.673600 0.000000 0.000000
 402  403  417  421 3 2.928800 -1.464400 0.209200 -1.673600 0.000000 0.000000
 403  402  406  407 3 -0.778 -2.335 0.000 3.113 -0.000 0.000
 403  402  406  408 3 -0.778 -2.335 0.000 3.113 -0.000 0.000
 403  402  406  409 3 -0.778 -2.335 0.000 3.113 -0.000 0.000
 404  402  403  405 4 180.000 10.460 2
 406  402  403  404 3 58.576 0.000 -58.576 -0.000 -0.000 0.000
 406  402  403  405 3 58.576 0.000 -58.576 -0.000 -0.000 0.000
 406  402  403  417 3 2.928800 -1.464400 0.209200 -1.673600 0.000000 0.000000
 403  417  418  419 3 0.627600 1.882800 0.000000 -2.510400 0.000000 0.000000
 403  417  418  420 3 0.627600 1.882800 0.000000 -2.510400 0.000000 0.000000
 403  417  418  432 3 2.928800 -1.464400 0.209200 -1.673600 0.000000 0.000000
 403  417  421  422 3 0.627600 1.882800 0.000000 -2.510400 0.000000 0.000000
 403  417  421  423 3 0.627600 1.882800 0.000000 -2.510400 0.000000 0.000000
 403  417  421  424 3 0.627600 1.882800 0.000000 -2.510400 0.000000 0.000000
 404  403  417  415 3 0.627600 1.882800 0.000000 -2.510400 0.000000 0.000000
 404  403  417  418 3 0.627600 1.882800 0.000000 -2.510400 0.000000 0.000000
 404  403  417  421 3 0.627600 1.882800 0.000000 -2.510400 0.000000 0.000000
 405  403  417  415 3 0.627600 1.882800 0.000000 -2.510400 0.000000 0.000000
 405  403  417  418 3 0.627600 1.882800 0.000000 -2.510400 0.000000 0.000000
 405  403  417  421 3 0.627600 1.882800 0.000000 -2.510400 0.000000 0.000000
 414  415  417  403 3 2.874410 0.581580 2.092000 -5.547990 0.000000 0.000000
 416  415  417  403 3 2.874410 0.581580 2.092000 -5.547990 0.000000 0.000000
 410  411  414  415 3 0.414 1.243 0.000 -1.657 -0.000 0.000
 411  414  415  416 3 21.439 0.000 -21.439 -0.000 -0.000 0.000
 411  414  415  417 3 31.206 -9.768 -21.439 -0.000 -0.000 0.000
 412  411  414  415 3 0.414 1.243 0.000 -1.657 -0.000 0.000
 413  411  414  415 3 0.414 1.243 0.000 -1.657 -0.000 0.000
 414  415  417  418 3 -5.858 -6.694 12.552 -0.000 -0.000 0.000
 414  415  417  421 3 1.789 -5.052 -0.962 4.226 -0.000 0.000
 416  414  415  417 4 180.000 43.932 2
 415  417  418  419 3 58.576 0.000 -58.576 -0.000 -0.000 0.000
 415  417  418  420 3 58.576 0.000 -58.576 -0.000 -0.000 0.000
 415  417  418  432 3 2.928800 -1.464400 0.209200 -1.673600 0.000000 0.000000
 415  417  421  422 3 -0.778 -2.335 0.000 3.113 -0.000 0.000
 415  417  421  423 3 -0.778 -2.335 0.000 3.113 -0.000 0.000
 415  417  421  424 3 -0.778 -2.335 0.000 3.113 -0.000 0.000
 416  415  417  418 3 30.334 -5.230 -25.104 -0.000 -0.000 0.000
 416  415  417  421 3 1.789 -5.052 -0.962 4.226 -0.000 0.000
 418  415  417  421 4 180.000 10.460 2
 417  418  432  430 3 2.928800 -1.464400 0.209200 -1.673600 0.000000 0.000000
 417  418  432  433 3 2.928800 -1.464400 0.209200 -1.673600 0.000000 0.000000
 417  418  432  436 3 2.928800 -1.464400 0.209200 -1.673600 0.000000 0.000000
 418  417  421  422 3 -0.778 -2.335 0.000 3.113 -0.000 0.000
 418  417  421  423 3 -0.778 -2.335 0.000 3.113 -0.000 0.000
 418  417  421  424 3 -0.778 -2.335 0.000 3.113 -0.000 0.000
 419  417  418  420 4 180.000 10.460 2
 421  417  418  419 3 58.576 0.000 -58.576 -0.000 -0.000 0.000
 421  417  418  420 3 58.576 0.000 -58.576 -0.000 -0.000 0.000
 421  417  418  432 3 2.928800 -1.464400 0.209200 -1.673600 0.000000 0.000000
 418  432  433  434 3 0.627600 1.882800 0.000000 -2.510400 0.000000 0.000000
 418  432  433  435 3 0.627600 1.882800 0.000000 -2.510400 0.000000 0.000000
 418  432  433  447 3 2.928800 -1.464400 0.209200 -1.673600 0.000000 0.000000
 418  432  436  437 3 0.627600 1.882800 0.000000 -2.510400 0.000000 0.000000
 418  432  436  438 3 0.627600 1.882800 0.000000 -2.510400 0.000000 0.000000
 418  432  436  439 3 0.627600 1.882800 0.000000 -2.510400 0.000000 0.000000
 419  418  432  430 3 0.627600 1.882800 0.000000 -2.510400 0.000000 0.000000
 419  418  432  433 3 0.627600 1.882800 0.000000 -2.510400 0.000000 0.000000
 419  418  432  436 3 0.627600 1.882800 0.000000 -2.510400 0.000000 0.000000
 420  418  432  430 3 0.627600 1.882800 0.000000 -2.510400 0.000000 0.000000
 420  418  432  433 3 0.627600 1.882800 0.000000 -2.510400 0.000000 0.000000
 420  418  432  436 3 0.627600 1.882800 0.000000 -2.510400 0.000000 0.000000
 429  430  432  418 3 2.874410 0.581580 2.092000 -5.547990 0.000000 0.000000
 431  430  432  418 3 2.874410 0.581580 2.092000 -5.547990 0.000000 0.000000
 425  426  429  430 3 0.414 1.243 0.000 -1.657 -0.000 0.000
 426  429  430  431 3 21.439 0.000 -21.439 -0.000 -0.000 0.000
 426  429  430  432 3 31.206 -9.768 -21.439 -0.000 -0.000 0.000
 427  426  429  430 3 0.414 1.243 0.000 -1.657 -0.000 0.000
 428  426  429  430 3 0.414 1.243 0.000 -1.657 -0.000 0.000
 429  430  432  433 3 -5.858 -6.694 12.552 -0.000 -0.000 0.000
 429  430  432  436 3 1.789 -5.052 -0.962 4.226 -0.000 0.000
 431  429  430  432 4 180.000 43.932 2
 430  432  433  434 3 58.576 0.000 -58.576 -0.000 -0.000 0.000
 430  432  433  435 3 58.576 0.000 -58.576 -0.000 -0.000 0.000
 430  432  433  447 3 2.928800 -1.464400 0.209200 -1.673600 0.000000 0.000000
 430  432  436  437 3 -0.778 -2.335 0.000 3.113 -0.000 0.000
 430  432  436  438 3 -0.778 -2.335 0.000 3.113 -0.000 0.000
 430  432  436  439 3 -0.778 -2.335 0.000 3.113 -0.000 0.000
 431  430  432  433 3 30.334 -5.230 -25.104 -0.000 -0.000 0.000
 431  430  432  436 3 1.789 -5.052 -0.962 4.226 -0.000 0.000
 433  430  432  436 4 180.000 10.460 2
 432  433  447  445 3 2.928800 -1.464400 0.209200 -1.673600 0.000000 0.000000
 432  433  447  448 3 2.928800 -1.464400 0.209200 -1.673600 0.000000 0.000000
 432  433  447  451 3 2.928800 -1.464400 0.209200 -1.673600 0.000000 0.000000
 433  432  436  437 3 -0.778 -2.335 0.000 3.113 -0.000 0.000
 433  432  436  438 3 -0.778 -2.335 0.000 3.113 -0.000 0.000
 433  432  436  439 3 -0.778 -2.335 0.000 3.113 -0.000 0.000
 434  432  433  435 4 180.000 10.460 2
 436  432  433  434 3 58.576 0.000 -58.576 -0.000 -0.000 0.000
 436  432  433  435 3 58.576 0.000 -58.576 -0.000 -0.000 0.000
 436  432  433  447 3 2.928800 -1.464400 0.209200 -1.673600 0.000000 0.000000
 433  447  448  449 3 0.627600 1.882800 0.000000 -2.510400 0.000000 0.000000
 433  447  448  450 3 0.627600 1.882800 0.000000 -2.510400 0.000000 0.000000
 433  447  448  462 3 2.928800 -1.464400 0.209200 -1.673600 0.000000 0.000000
 433  447  451  452 3 0.627600 1.882800 0.000000 -2.510400 0.000000 0.000000
 433  447  451  453 3 0.627600 1.882800 0.000000 -2.510400 0.000000 0.000000
 433  447  451  454 3 0.627600 1.882800 0.000000 -2.510400 0.000000 0.000000
 434  433  447  445 3 0.627600 1.882800 0.000000 -2.510400 0.000000 0.000000
 434  433  447  448 3 0.627600 1.882800 0.000000 -2.510400 0.000000 0.000000
 434  433  447  451 3 0.627600 1.882800 0.000000 -2.510400 0.000000 0.000000
 435  433  447  445 3 0.627600 1.882800 0.000000 -2.510400 0.000000 0.000000
 435  433  447  448 3 0.627600 1.882800 0.000000 -2.510400 0.000000 0.000000
 435  433  447  451 3 0.627600 1.882800 0.000000 -2.510400 0.000000 0.000000
 444  445  447  433 3 2.874410 0.581580 2.092000 -5.547990 0.000000 0.000000
 446  445  447  433 3 2.874410 0.581580 2.092000 -5.547990 0.000000 0.000000
 440  441  444  445 3 0.414 1.243 0.000 -1.657 -0.000 0.000
 441  444  445  446 3 21.439 0.000 -21.439 -0.000 -0.000 0.000
 441  444  445  447 3 31.206 -9.768 -21.439 -0.000 -0.000 0.000
 442  441  444  445 3 0.414 1.243 0.000 -1.657 -0.000 0.000
 443  441  444  445 3 0.414 1.243 0.000 -1.657 -0.000 0.000
 444  445  447  448 3 -5.858 -6.694 12.552 -0.000 -0.000 0.000
 444  445  447  451 3 1.789 -5.052 -0.962 4.226 -0.000 0.000
 446  444  445  447 4 180.000 43.932 2
 445  447  448  449 3 58.576 0.000 -58.576 -0.000 -0.000 0.000
 445  447  448  450 3 58.576 0.000 -58.576 -0.000 -0.000 0.000
 445  447  448  462 3 2.928800 -1.464400 0.209200 -1.673600 0.000000 0.000000
 445  447  451  452 3 -0.778 -2.335 0.000 3.113 -0.000 0.000
 445  447  451  453 3 -0.778 -2.335 0.000 3.113 -0.000 0.000
 445  447  451  454 3 -0.778 -2.335 0.000 3.113 -0.000 0.000
 446  445  447  448 3 30.334 -5.230 -25.104 -0.000 -0.000 0.000
 446  445  447  451 3 1.789 -5.052 -0.962 4.226 -0.000 0.000
 448  445  447  451 4 180.000 10.460 2
 447  448  462  460 3 2.928800 -1.464400 0.209200 -1.673600 0.000000 0.000000
 447  448  462  463 3 2.928800 -1.464400 0.209200 -1.673600 0.000000 0.000000
 447  448  462  466 3 2.928800 -1.464400 0.209200 -1.673600 0.000000 0.000000
 448  447  451  452 3 -0.778 -2.335 0.000 3.113 -0.000 0.000
 448  447  451  453 3 -0.778 -2.335 0.000 3.113 -0.000 0.000
 448  447  451  454 3 -0.778 -2.335 0.000 3.113 -0.000 0.000
 449  447  448  450 4 180.000 10.460 2
 451  447  448  449 3 58.576 0.000 -58.576 -0.000 -0.000 0.000
 451  447  448  450 3 58.576 0.000 -58.576 -0.000 -0.000 0.000
 451  447  448  462 3 2.928800 -1.464400 0.209200 -1.673600 0.000000 0.000000
 448  462  463  464 3 0.627600 1.882800 0.000000 -2.510400 0.000000 0.000000
 448  462  463  465 3 0.627600 1.882800 0.000000 -2.510400 0.000000 0.000000
 448  462  463  477 3 2.928800 -1.464400 0.209200 -1.673600 0.000000 0.000000
 448  462  466  467 3 0.627600 1.882800 0.000000 -2.510400 0.000000 0.000000
 448  462  466  468 3 0.627600 1.882800 0.000000 -2.510400 0.000000 0.000000
 448  462  466  469 3 0.627600 1.882800 0.000000 -2.510400 0.000000 0.000000
 449  448  462  460 3 0.627600 1.882800 0.000000 -2.510400 0.000000 0.000000
 449  448  462  463 3 0.627600 1.882800 0.000000 -2.510400 0.000000 0.000000
 449  448  462  466 3 0.627600 1.882800 0.000000 -2.510400 0.000000 0.000000
 450  448  462  460 3 0.627600 1.882800 0.000000 -2.510400 0.000000 0.000000
 450  448  462  463 3 0.627600 1.882800 0.000000 -2.510400 0.000000 0.000000
 450  448  462  466 3 0.627600 1.882800 0.000000 -2.510400 0.000000 0.000000
 459  460  462  448 3 2.874410 0.581580 2.092000 -5.547990 0.000000 0.000000
 461  460  462  448 3 2.874410 0.581580 2.092000 -5.547990 0.000000 0.000000
 455  456  459  460 3 0.414 1.243 0.000 -1.657 -0.000 0.000
 456  459  460  461 3 21.439 0.000 -21.439 -0.000 -0.000 0.000
 456  459  460  462 3 31.206 -9.768 -21.439 -0.000 -0.000 0.000
 457  456  459  460 3 0.414 1.243 0.000 -1.657 -0.000 0.000
 458  456  459  460 3 0.414 1.243 0.000 -1.657 -0.000 0.000
 459  460  462  463 3 -5.858 -6.694 12.552 -0.000 -0.000 0.000
 459  460  462  466 3 1.789 -5.052 -0.962 4.226 -0.000 0.000
 461  459  460  462 4 180.000 43.932 2
 460  462  463  464 3 58.576 0.000 -58.576 -0.000 -0.000 0.000
 460  462  463  465 3 58.576 0.000 -58.576 -0.000 -0.000 0.000
 460  462  463  477 3 2.928800 -1.464400 0.209200 -1.673600 0.000000 0.000000
 460  462  466  467 3 -0.778 -2.335 0.000 3.113 -0.000 0.000
 460  462  466  468 3 -0.778 -2.335 0.000 3.113 -0.000 0.000
 460  462  466  469 3 -0.778 -2.335 0.000 3.113 -0.000 0.000
 461  460  462  463 3 30.334 -5.230 -25.104 -0.000 -0.000 0.000
 461  460  462  466 3 1.789 -5.052 -0.962 4.226 -0.000 0.000
 463  460  462  466 4 180.000 10.460 2
 462  463  477  475 3 2.928800 -1.464400 0.209200 -1.673600 0.000000 0.000000
 462  463  477  478 3 2.928800 -1.464400 0.209200 -1.673600 0.000000 0.000000
 462  463  477  481 3 2.928800 -1.464400 0.209200 -1.673600 0.000000 0.000000
 463  462  466  467 3 -0.778 -2.335 0.000 3.113 -0.000 0.000
 463  462  466  468 3 -0.778 -2.335 0.000 3.113 -0.000 0.000
 463  462  466  469 3 -0.778 -2.335 0.000 3.113 -0.000 0.000
 464  462  463  465 4 180.000 10.460 2
 466  462  463  464 3 58.576 0.000 -58.576 -0.000 -0.000 0.000
 466  462  463  465 3 58.576 0.000 -58.576 -0.000 -0.000 0.000
 466  462  463  477 3 2.928800 -1.464400 0.209200 -1.673600 0.000000 0.000000
 463  477  478  479 3 0.627600 1.882800 0.000000 -2.510400 0.000000 0.000000
 463  477  478  480 3 0.627600 1.882800 0.000000 -2.510400 0.000000 0.000000
 463  477  478  492 3 2.928800 -1.464400 0.209200 -1.673600 0.000000 0.000000
 463  477  481  482 3 0.627600 1.882800 0.000000 -2.510400 0.000000 0.000000
 463  477  481  483 3 0.627600 1.882800 0.000000 -2.510400 0.000000 0.000000
 463  477  481  484 3 0.627600 1.882800 0.000000 -2.510400 0.000000 0.000000
 464  463  477  475 3 0.627600 1.882800 0.000000 -2.510400 0.000000 0.000000
 464  463  477  478 3 0.627600 1.882800 0.000000 -2.510400 0.000000 0.000000
 464  463  477  481 3 0.627600 1.882800 0.000000 -2.510400 0.000000 0.000000
 465  463  477  475 3 0.627600 1.882800 0.000000 -2.510400 0.000000 0.000000
 465  463  477  478 3 0.627600 1.882800 0.000000 -2.510400 0.000000 0.000000
 465  463  477  481 3 0.627600 1.882800 0.000000 -2.510400 0.000000 0.000000
 474  475  477  463 3 2.874410 0.581580 2.092000 -5.547990 0.000000 0.000000
 476  475  477  463 3 2.874410 0.581580 2.092000 -5.547990 0.000000 0.000000
 470  471  474  475 3 0.414 1.243 0.000 -1.657 -0.000 0.000
 471  474  475  476 3 21.439 0.000 -21.439 -0.000 -0.000 0.000
 471  474  475  477 3 31.206 -9.768 -21.439 -0.000 -0.000 0.000
 472  471  474  475 3 0.414 1.243 0.000 -1.657 -0.000 0.000
 473  471  474  475 3 0.414 1.243 0.000 -1.657 -0.000 0.000
 474  475  477  478 3 -5.858 -6.694 12.552 -0.000 -0.000 0.000
 474  475  477  481 3 1.789 -5.052 -0.962 4.226 -0.000 0.000
 476  474  475  477 4 180.000 43.932 2
 475  477  478  479 3 58.576 0.000 -58.576 -0.000 -0.000 0.000
 475  477  478  480 3 58.576 0.000 -58.576 -0.000 -0.000 0.000
 475  477  478  492 3 2.928800 -1.464400 0.209200 -1.673600 0.000000 0.000000
 475  477  481  482 3 -0.778 -2.335 0.000 3.113 -0.000 0.000
 475  477  481  483 3 -0.778 -2.335 0.000 3.113 -0.000 0.000
 475  477  481  484 3 -0.778 -2.335 0.000 3.113 -0.000 0.000
 476  475  477  478 3 30.334 -5.230 -25.104 -0.000 -0.000 0.000
 476  475  477  481 3 1.789 -5.052 -0.962 4.226 -0.000 0.000
 478  475  477  481 4 180.000 10.460 2
 477  478  492  490 3 2.928800 -1.464400 0.209200 -1.673600 0.000000 0.000000
 477  478  492  493 3 2.928800 -1.464400 0.209200 -1.673600 0.000000 0.000000
 477  478  492  496 3 2.928800 -1.464400 0.209200 -1.673600 0.000000 0.000000
 478  477  481  482 3 -0.778 -2.335 0.000 3.113 -0.000 0.000
 478  477  481  483 3 -0.778 -2.335 0.000 3.113 -0.000 0.000
 478  477  481  484 3 -0.778 -2.335 0.000 3.113 -0.000 0.000
 479  477  478  480 4 180.000 10.460 2
 481  477  478  479 3 58.576 0.000 -58.576 -0.000 -0.000 0.000
 481  477  478  480 3 58.576 0.000 -58.576 -0.000 -0.000 0.000
 481  477  478  492 3 2.928800 -1.464400 0.209200 -1.673600 0.000000 0.000000
 478  492  493  494 3 0.627600 1.882800 0.000000 -2.510400 0.000000 0.000000
 478  492  493  495 3 0.627600 1.882800 0.000000 -2.510400 0.000000 0.000000
 478  492  493  507 3 2.928800 -1.464400 0.209200 -1.673600 0.000000 0.000000
 478  492  496  497 3 0.627600 1.882800 0.000000 -2.510400 0.000000 0.000000
 478  492  496  498 3 0.627600 1.882800 0.000000 -2.510400 0.000000 0.000000
 478  492  496  499 3 0.627600 1.882800 0.000000 -2.510400 0.000000 0.000000
 479  478  492  490 3 0.627600 1.882800 0.000000 -2.510400 0.000000 0.000000
 479  478  492  493 3 0.627600 1.882800 0.000000 -2.510400 0.000000 0.000000
 479  478  492  496 3 0.627600 1.882800 0.000000 -2.510400 0.000000 0.000000
 480  478  492  490 3 0.627600 1.882800 0.000000 -2.510400 0.000000 0.000000
 480  478  492  493 3 0.627600 1.882800 0.000000 -2.510400 0.000000 0.000000
 480  478  492  496 3 0.627600 1.882800 0.000000 -2.510400 0.000000 0.000000
 489  490  492  478 3 2.874410 0.581580 2.092000 -5.547990 0.000000 0.000000
 491  490  492  478 3 2.874410 0.581580 2.092000 -5.547990 0.000000 0.000000
 485  486  489  490 3 0.414 1.243 0.000 -1.657 -0.000 0.000
 486  489  490  491 3 21.439 0.000 -21.439 -0.000 -0.000 0.000
 486  489  490  492 3 31.206 -9.768 -21.439 -0.000 -0.000 0.000
 487  486  489  490 3 0.414 1.243 0.000 -1.657 -0.000 0.000
 488  486  489  490 3 0.414 1.243 0.000 -1.657 -0.000 0.000
 489  490  492  493 3 -5.858 -6.694 12.552 -0.000 -0.000 0.000
 489  490  492  496 3 1.789 -5.052 -0.962 4.226 -0.000 0.000
 491  489  490  492 4 180.000 43.932 2
 490  492  493  494 3 58.576 0.000 -58.576 -0.000 -0.000 0.000
 490  492  493  495 3 58.576 0.000 -58.576 -0.000 -0.000 0.000
 490  492  493  507 3 2.928800 -1.464400 0.209200 -1.673600 0.000000 0.000000
 490  492  496  497 3 -0.778 -2.335 0.000 3.113 -0.000 0.000
 490  492  496  498 3 -0.778 -2.335 0.000 3.113 -0.000 0.000
 490  492  496  499 3 -0.778 -2.335 0.000 3.113 -0.000 0.000
 491  490  492  493 3 30.334 -5.230 -25.104 -0.000 -0.000 0.000
 491  490  492  496 3 1.789 -5.052 -0.962 4.226 -0.000 0.000
 493  490  492  496 4 180.000 10.460 2
 492  493  507  505 3 2.928800 -1.464400 0.209200 -1.673600 0.000000 0.000000
 492  493  507  508 3 2.928800 -1.464400 0.209200 -1.673600 0.000000 0.000000
 492  493  507  511 3 2.928800 -1.464400 0.209200 -1.673600 0.000000 0.000000
 493  492  496  497 3 -0.778 -2.335 0.000 3.113 -0.000 0.000
 493  492  496  498 3 -0.778 -2.335 0.000 3.113 -0.000 0.000
 493  492  496  499 3 -0.778 -2.335 0.000 3.113 -0.000 0.000
 494  492  493  495 4 180.000 10.460 2
 496  492  493  494 3 58.576 0.000 -58.576 -0.000 -0.000 0.000
 496  492  493  495 3 58.576 0.000 -58.576 -0.000 -0.000 0.000
 496  492  493  507 3 2.928800 -1.464400 0.209200 -1.673600 0.000000 0.000000
 493  507  508  509 3 0.627600 1.882800 0.000000 -2.510400 0.000000 0.000000
 493  507  508  510 3 0.627600 1.882800 0.000000 -2.510400 0.000000 0.000000
 493  507  508  522 3 2.928800 -1.464400 0.209200 -1.673600 0.000000 0.000000
 493  507  511  512 3 0.627600 1.882800 0.000000 -2.510400 0.000000 0.000000
 493  507  511  513 3 0.627600 1.882800 0.000000 -2.510400 0.000000 0.000000
 493  507  511  514 3 0.627600 1.882800 0.000000 -2.510400 0.000000 0.000000
 494  493  507  505 3 0.627600 1.882800 0.000000 -2.510400 0.000000 0.000000
 494  493  507  508 3 0.627600 1.882800 0.000000 -2.510400 0.000000 0.000000
 494  493  507  511 3 0.627600 1.882800 0.000000 -2.510400 0.000000 0.000000
 495  493  507  505 3 0.627600 1.882800 0.000000 -2.510400 0.000000 0.000000
 495  493  507  508 3 0.627600 1.882800 0.000000 -2.510400 0.000000 0.000000
 495  493  507  511 3 0.627600 1.882800 0.000000 -2.510400 0.000000 0.000000
 504  505  507  493 3 2.874410 0.581580 2.092000 -5.547990 0.000000 0.000000
 506  505  507  493 3 2.874410 0.581580 2.092000 -5.547990 0.000000 0.000000
 500  501  504  505 3 0.414 1.243 0.000 -1.657 -0.000 0.000
 501  504  505  506 3 21.439 0.000 -21.439 -0.000 -0.000 0.000
 501  504  505  507 3 31.206 -9.768 -21.439 -0.000 -0.000 0.000
 502  501  504  505 3 0.414 1.243 0.000 -1.657 -0.000 0.000
 503  501  504  505 3 0.414 1.243 0.000 -1.657 -0.000 0.000
 504  505  507  508 3 -5.858 -6.694 12.552 -0.000 -0.000 0.000
 504  505  507  511 3 1.789 -5.052 -0.962 4.226 -0.000 0.000
 506  504  505  507 4 180.000 43.932 2
 505  507  508  509 3 58.576 0.000 -58.576 -0.000 -0.000 0.000
 505  507  508  510 3 58.576 0.000 -58.576 -0.000 -0.000 0.000
 505  507  508  522 3 2.928800 -1.464400 0.209200 -1.673600 0.000000 0.000000
 505  507  511  512 3 -0.778 -2.335 0.000 3.113 -0.000 0.000
 505  507  511  513 3 -0.778 -2.335 0.000 3.113 -0.000 0.000
 505  507  511  514 3 -0.778 -2.335 0.000 3.113 -0.000 0.000
 506  505  507  508 3 30.334 -5.230 -25.104 -0.000 -0.000 0.000
 506  505  507  511 3 1.789 -5.052 -0.962 4.226 -0.000 0.000
 508  505  507  511 4 180.000 10.460 2
 507  508  522  520 3 2.928800 -1.464400 0.209200 -1.673600 0.000000 0.000000
 507  508  522  523 3 2.928800 -1.464400 0.209200 -1.673600 0.000000 0.000000
 507  508  522  526 3 2.928800 -1.464400 0.209200 -1.673600 0.000000 0.000000
 508  507  511  512 3 -0.778 -2.335 0.000 3.113 -0.000 0.000
 508  507  511  513 3 -0.778 -2.335 0.000 3.113 -0.000 0.000
 508  507  511  514 3 -0.778 -2.335 0.000 3.113 -0.000 0.000
 509  507  508  510 4 180.000 10.460 2
 511  507  508  509 3 58.576 0.000 -58.576 -0.000 -0.000 0.000
 511  507  508  510 3 58.576 0.000 -58.576 -0.000 -0.000 0.000
 511  507  508  522 3 2.928800 -1.464400 0.209200 -1.673600 0.000000 0.000000
 508  522  523  524 3 0.627600 1.882800 0.000000 -2.510400 0.000000 0.000000
 508  522  523  525 3 0.627600 1.882800 0.000000 -2.510400 0.000000 0.000000
 508  522  523  537 3 2.928800 -1.464400 0.209200 -1.673600 0.000000 0.000000
 508  522  526  527 3 0.627600 1.882800 0.000000 -2.510400 0.000000 0.000000
 508  522  526  528 3 0.627600 1.882800 0.000000 -2.510400 0.000000 0.000000
 508  522  526  529 3 0.627600 1.882800 0.000000 -2.510400 0.000000 0.000000
 509  508  522  520 3 0.627600 1.882800 0.000000 -2.510400 0.000000 0.000000
 509  508  522  523 3 0.627600 1.882800 0.000000 -2.510400 0.000000 0.000000
 509  508  522  526 3 0.627600 1.882800 0.000000 -2.510400 0.000000 0.000000
 510  508  522  520 3 0.627600 1.882800 0.000000 -2.510400 0.000000 0.000000
 510  508  522  523 3 0.627600 1.882800 0.000000 -2.510400 0.000000 0.000000
 510  508  522  526 3 0.627600 1.882800 0.000000 -2.510400 0.000000 0.000000
 519  520  522  508 3 2.874410 0.581580 2.092000 -5.547990 0.000000 0.000000
 521  520  522  508 3 2.874410 0.581580 2.092000 -5.547990 0.000000 0.000000
 515  516  519  520 3 0.414 1.243 0.000 -1.657 -0.000 0.000
 516  519  520  521 3 21.439 0.000 -21.439 -0.000 -0.000 0.000
 516  519  520  522 3 31.206 -9.768 -21.439 -0.000 -0.000 0.000
 517  516  519  520 3 0.414 1.243 0.000 -1.657 -0.000 0.000
 518  516  519  520 3 0.414 1.243 0.000 -1.657 -0.000 0.000
 519  520  522  523 3 -5.858 -6.694 12.552 -0.000 -0.000 0.000
 519  520  522  526 3 1.789 -5.052 -0.962 4.226 -0.000 0.000
 521  519  520  522 4 180.000 43.932 2
 520  522  523  524 3 58.576 0.000 -58.576 -0.000 -0.000 0.000
 520  522  523  525 3 58.576 0.000 -58.576 -0.000 -0.000 0.000
 520  522  523  537 3 2.928800 -1.464400 0.209200 -1.673600 0.000000 0.000000
 520  522  526  527 3 -0.778 -2.335 0.000 3.113 -0.000 0.000
 520  522  526  528 3 -0.778 -2.335 0.000 3.113 -0.000 0.000
 520  522  526  529 3 -0.778 -2.335 0.000 3.113 -0.000 0.000
 521  520  522  523 3 30.334 -5.230 -25.104 -0.000 -0.000 0.000
 521  520  522  526 3 1.789 -5.052 -0.962 4.226 -0.000 0.000
 523  520  522  526 4 180.000 10.460 2
 522  523  537  535 3 2.928800 -1.464400 0.209200 -1.673600 0.000000 0.000000
 522  523  537  538 3 2.928800 -1.464400 0.209200 -1.673600 0.000000 0.000000
 522  523  537  541 3 2.928800 -1.464400 0.209200 -1.673600 0.000000 0.000000
 523  522  526  527 3 -0.778 -2.335 0.000 3.113 -0.000 0.000
 523  522  526  528 3 -0.778 -2.335 0.000 3.113 -0.000 0.000
 523  522  526  529 3 -0.778 -2.335 0.000 3.113 -0.000 0.000
 524  522  523  525 4 180.000 10.460 2
 526  522  523  524 3 58.576 0.000 -58.576 -0.000 -0.000 0.000
 526  522  523  525 3 58.576 0.000 -58.576 -0.000 -0.000 0.000
 526  522  523  537 3 2.928800 -1.464400 0.209200 -1.673600 0.000000 0.000000
 523  537  538  539 3 0.627600 1.882800 0.000000 -2.510400 0.000000 0.000000
 523  537  538  540 3 0.627600 1.882800 0.000000 -2.510400 0.000000 0.000000
 523  537  538  552 3 2.928800 -1.464400 0.209200 -1.673600 0.000000 0.000000
 523  537  541  542 3 0.627600 1.882800 0.000000 -2.510400 0.000000 0.000000
 523  537  541  543 3 0.627600 1.882800 0.000000 -2.510400 0.000000 0.000000
 523  537  541  544 3 0.627600 1.882800 0.000000 -2.510400 0.000000 0.000000
 524  523  537  535 3 0.627600 1.882800 0.000000 -2.510400 0.000000 0.000000
 524  523  537  538 3 0.627600 1.882800 0.000000 -2.510400 0.000000 0.000000
 524  523  537  541 3 0.627600 1.882800 0.000000 -2.510400 0.000000 0.000000
 525  523  537  535 3 0.627600 1.882800 0.000000 -2.510400 0.000000 0.000000
 525  523  537  538 3 0.627600 1.882800 0.000000 -2.510400 0.000000 0.000000
 525  523  537  541 3 0.627600 1.882800 0.000000 -2.510400 0.000000 0.000000
 534  535  537  523 3 2.874410 0.581580 2.092000 -5.547990 0.000000 0.000000
 536  535  537  523 3 2.874410 0.581580 2.092000 -5.547990 0.000000 0.000000
 530  531  534  535 3 0.414 1.243 0.000 -1.657 -0.000 0.000
 531  534  535  536 3 21.439 0.000 -21.439 -0.000 -0.000 0.000
 531  534  535  537 3 31.206 -9.768 -21.439 -0.000 -0.000 0.000
 532  531  534  535 3 0.414 1.243 0.000 -1.657 -0.000 0.000
 533  531  534  535 3 0.414 1.243 0.000 -1.657 -0.000 0.000
 534  535  537  538 3 -5.858 -6.694 12.552 -0.000 -0.000 0.000
 534  535  537  541 3 1.789 -5.052 -0.962 4.226 -0.000 0.000
 536  534  535  537 4 180.000 43.932 2
 535  537  538  539 3 58.576 0.000 -58.576 -0.000 -0.000 0.000
 535  537  538  540 3 58.576 0.000 -58.576 -0.000 -0.000 0.000
 535  537  538  552 3 2.928800 -1.464400 0.209200 -1.673600 0.000000 0.000000
 535  537  541  542 3 -0.778 -2.335 0.000 3.113 -0.000 0.000
 535  537  541  543 3 -0.778 -2.335 0.000 3.113 -0.000 0.000
 535  537  541  544 3 -0.778 -2.335 0.000 3.113 -0.000 0.000
 536  535  537  538 3 30.334 -5.230 -25.104 -0.000 -0.000 0.000
 536  535  537  541 3 1.789 -5.052 -0.962 4.226 -0.000 0.000
 538  535  537  541 4 180.000 10.460 2
 537  538  552  550 3 2.928800 -1.464400 0.209200 -1.673600 0.000000 0.000000
 537  538  552  553 3 2.928800 -1.464400 0.209200 -1.673600 0.000000 0.000000
 537  538  552  556 3 2.928800 -1.464400 0.209200 -1.673600 0.000000 0.000000
 538  537  541  542 3 -0.778 -2.335 0.000 3.113 -0.000 0.000
 538  537  541  543 3 -0.778 -2.335 0.000 3.113 -0.000 0.000
 538  537  541  544 3 -0.778 -2.335 0.000 3.113 -0.000 0.000
 539  537  538  540 4 180.000 10.460 2
 541  537  538  539 3 58.576 0.000 -58.576 -0.000 -0.000 0.000
 541  537  538  540 3 58.576 0.000 -58.576 -0.000 -0.000 0.000
 541  537  538  552 3 2.928800 -1.464400 0.209200 -1.673600 0.000000 0.000000
 538  552  553  554 3 0.627600 1.882800 0.000000 -2.510400 0.000000 0.000000
 538  552  553  555 3 0.627600 1.882800 0.000000 -2.510400 0.000000 0.000000
 538  552  553  567 3 2.928800 -1.464400 0.209200 -1.673600 0.000000 0.000000
 538  552  556  557 3 0.627600 1.882800 0.000000 -2.510400 0.000000 0.000000
 538  552  556  558 3 0.627600 1.882800 0.000000 -2.510400 0.000000 0.000000
 538  552  556  559 3 0.627600 1.882800 0.000000 -2.510400 0.000000 0.000000
 539  538  552  550 3 0.627600 1.882800 0.000000 -2.510400 0.000000 0.000000
 539  538  552  553 3 0.627600 1.882800 0.000000 -2.510400 0.000000 0.000000
 539  538  552  556 3 0.627600 1.882800 0.000000 -2.510400 0.000000 0.000000
 540  538  552  550 3 0.627600 1.882800 0.000000 -2.510400 0.000000 0.000000
 540  538  552  553 3 0.627600 1.882800 0.000000 -2.510400 0.000000 0.000000
 540  538  552  556 3 0.627600 1.882800 0.000000 -2.510400 0.000000 0.000000
 549  550  552  538 3 2.874410 0.581580 2.092000 -5.547990 0.000000 0.000000
 551  550  552  538 3 2.874410 0.581580 2.092000 -5.547990 0.000000 0.000000
 545  546  549  550 3 0.414 1.243 0.000 -1.657 -0.000 0.000
 546  549  550  551 3 21.439 0.000 -21.439 -0.000 -0.000 0.000
 546  549  550  552 3 31.206 -9.768 -21.439 -0.000 -0.000 0.000
 547  546  549  550 3 0.414 1.243 0.000 -1.657 -0.000 0.000
 548  546  549  550 3 0.414 1.243 0.000 -1.657 -0.000 0.000
 549  550  552  553 3 -5.858 -6.694 12.552 -0.000 -0.000 0.000
 549  550  552  556 3 1.789 -5.052 -0.962 4.226 -0.000 0.000
 551  549  550  552 4 180.000 43.932 2
 550  552  553  554 3 58.576 0.000 -58.576 -0.000 -0.000 0.000
 550  552  553  555 3 58.576 0.000 -58.576 -0.000 -0.000 0.000
 550  552  553  567 3 2.928800 -1.464400 0.209200 -1.673600 0.000000 0.000000
 550  552  556  557 3 -0.778 -2.335 0.000 3.113 -0.000 0.000
 550  552  556  558 3 -0.778 -2.335 0.000 3.113 -0.000 0.000
 550  552  556  559 3 -0.778 -2.335 0.000 3.113 -0.000 0.000
 551  550  552  553 3 30.334 -5.230 -25.104 -0.000 -0.000 0.000
 551  550  552  556 3 1.789 -5.052 -0.962 4.226 -0.000 0.000
 553  550  552  556 4 180.000 10.460 2
 552  553  567  565 3 2.928800 -1.464400 0.209200 -1.673600 0.000000 0.000000
 552  553  567  568 3 2.928800 -1.464400 0.209200 -1.673600 0.000000 0.000000
 552  553  567  571 3 2.928800 -1.464400 0.209200 -1.673600 0.000000 0.000000
 553  552  556  557 3 -0.778 -2.335 0.000 3.113 -0.000 0.000
 553  552  556  558 3 -0.778 -2.335 0.000 3.113 -0.000 0.000
 553  552  556  559 3 -0.778 -2.335 0.000 3.113 -0.000 0.000
 554  552  553  555 4 180.000 10.460 2
 556  552  553  554 3 58.576 0.000 -58.576 -0.000 -0.000 0.000
 556  552  553  555 3 58.576 0.000 -58.576 -0.000 -0.000 0.000
 556  552  553  567 3 2.928800 -1.464400 0.209200 -1.673600 0.000000 0.000000
 553  567  568  569 3 0.627600 1.882800 0.000000 -2.510400 0.000000 0.000000
 553  567  568  570 3 0.627600 1.882800 0.000000 -2.510400 0.000000 0.000000
 553  567  568  582 3 2.928800 -1.464400 0.209200 -1.673600 0.000000 0.000000
 553  567  571  572 3 0.627600 1.882800 0.000000 -2.510400 0.000000 0.000000
 553  567  571  573 3 0.627600 1.882800 0.000000 -2.510400 0.000000 0.000000
 553  567  571  574 3 0.627600 1.882800 0.000000 -2.510400 0.000000 0.000000
 554  553  567  565 3 0.627600 1.882800 0.000000 -2.510400 0.000000 0.000000
 554  553  567  568 3 0.627600 1.882800 0.000000 -2.510400 0.000000 0.000000
 554  553  567  571 3 0.627600 1.882800 0.000000 -2.510400 0.000000 0.000000
 555  553  567  565 3 0.627600 1.882800 0.000000 -2.510400 0.000000 0.000000
 555  553  567  568 3 0.627600 1.882800 0.000000 -2.510400 0.000000 0.000000
 555  553  567  571 3 0.627600 1.882800 0.000000 -2.510400 0.000000 0.000000
 564  565  567  553 3 2.874410 0.581580 2.092000 -5.547990 0.000000 0.000000
 566  565  567  553 3 2.874410 0.581580 2.092000 -5.547990 0.000000 0.000000
 560  561  564  565 3 0.414 1.243 0.000 -1.657 -0.000 0.000
 561  564  565  566 3 21.439 0.000 -21.439 -0.000 -0.000 0.000
 561  564  565  567 3 31.206 -9.768 -21.439 -0.000 -0.000 0.000
 562  561  564  565 3 0.414 1.243 0.000 -1.657 -0.000 0.000
 563  561  564  565 3 0.414 1.243 0.000 -1.657 -0.000 0.000
 564  565  567  568 3 -5.858 -6.694 12.552 -0.000 -0.000 0.000
 564  565  567  571 3 1.789 -5.052 -0.962 4.226 -0.000 0.000
 566  564  565  567 4 180.000 43.932 2
 565  567  568  569 3 58.576 0.000 -58.576 -0.000 -0.000 0.000
 565  567  568  570 3 58.576 0.000 -58.576 -0.000 -0.000 0.000
 565  567  568  582 3 2.928800 -1.464400 0.209200 -1.673600 0.000000 0.000000
 565  567  571  572 3 -0.778 -2.335 0.000 3.113 -0.000 0.000
 565  567  571  573 3 -0.778 -2.335 0.000 3.113 -0.000 0.000
 565  567  571  574 3 -0.778 -2.335 0.000 3.113 -0.000 0.000
 566  565  567  568 3 30.334 -5.230 -25.104 -0.000 -0.000 0.000
 566  565  567  571 3 1.789 -5.052 -0.962 4.226 -0.000 0.000
 568  565  567  571 4 180.000 10.460 2
 567  568  582  580 3 2.928800 -1.464400 0.209200 -1.673600 0.000000 0.000000
 567  568  582  583 3 2.928800 -1.464400 0.209200 -1.673600 0.000000 0.000000
 567  568  582  586 3 2.928800 -1.464400 0.209200 -1.673600 0.000000 0.000000
 568  567  571  572 3 -0.778 -2.335 0.000 3.113 -0.000 0.000
 568  567  571  573 3 -0.778 -2.335 0.000 3.113 -0.000 0.000
 568  567  571  574 3 -0.778 -2.335 0.000 3.113 -0.000 0.000
 569  567  568  570 4 180.000 10.460 2
 571  567  568  569 3 58.576 0.000 -58.576 -0.000 -0.000 0.000
 571  567  568  570 3 58.576 0.000 -58.576 -0.000 -0.000 0.000
 571  567  568  582 3 2.928800 -1.464400 0.209200 -1.673600 0.000000 0.000000
 568  582  583  584 3 0.627600 1.882800 0.000000 -2.510400 0.000000 0.000000
 568  582  583  585 3 0.627600 1.882800 0.000000 -2.510400 0.000000 0.000000
 568  582  583  597 3 2.928800 -1.464400 0.209200 -1.673600 0.000000 0.000000
 568  582  586  587 3 0.627600 1.882800 0.000000 -2.510400 0.000000 0.000000
 568  582  586  588 3 0.627600 1.882800 0.000000 -2.510400 0.000000 0.000000
 568  582  586  589 3 0.627600 1.882800 0.000000 -2.510400 0.000000 0.000000
 569  568  582  580 3 0.627600 1.882800 0.000000 -2.510400 0.000000 0.000000
 569  568  582  583 3 0.627600 1.882800 0.000000 -2.510400 0.000000 0.000000
 569  568  582  586 3 0.627600 1.882800 0.000000 -2.510400 0.000000 0.000000
 570  568  582  580 3 0.627600 1.882800 0.000000 -2.510400 0.000000 0.000000
 570  568  582  583 3 0.627600 1.882800 0.000000 -2.510400 0.000000 0.000000
 570  568  582  586 3 0.627600 1.882800 0.000000 -2.510400 0.000000 0.000000
 579  580  582  568 3 2.874410 0.581580 2.092000 -5.547990 0.000000 0.000000
 581  580  582  568 3 2.874410 0.581580 2.092000 -5.547990 0.000000 0.000000
 575  576  579  580 3 0.414 1.243 0.000 -1.657 -0.000 0.000
 576  579  580  581 3 21.439 0.000 -21.439 -0.000 -0.000 0.000
 576  579  580  582 3 31.206 -9.768 -21.439 -0.000 -0.000 0.000
 577  576  579  580 3 0.414 1.243 0.000 -1.657 -0.000 0.000
 578  576  579  580 3 0.414 1.243 0.000 -1.657 -0.000 0.000
 579  580  582  583 3 -5.858 -6.694 12.552 -0.000 -0.000 0.000
 579  580  582  586 3 1.789 -5.052 -0.962 4.226 -0.000 0.000
 581  579  580  582 4 180.000 43.932 2
 580  582  583  584 3 58.576 0.000 -58.576 -0.000 -0.000 0.000
 580  582  583  585 3 58.576 0.000 -58.576 -0.000 -0.000 0.000
 580  582  583  597 3 2.928800 -1.464400 0.209200 -1.673600 0.000000 0.000000
 580  582  586  587 3 -0.778 -2.335 0.000 3.113 -0.000 0.000
 580  582  586  588 3 -0.778 -2.335 0.000 3.113 -0.000 0.000
 580  582  586  589 3 -0.778 -2.335 0.000 3.113 -0.000 0.000
 581  580  582  583 3 30.334 -5.230 -25.104 -0.000 -0.000 0.000
 581  580  582  586 3 1.789 -5.052 -0.962 4.226 -0.000 0.000
 583  580  582  586 4 180.000 10.460 2
 582  583  597  595 3 2.928800 -1.464400 0.209200 -1.673600 0.000000 0.000000
 582  583  597  598 3 2.928800 -1.464400 0.209200 -1.673600 0.000000 0.000000
 582  583  597  601 3 2.928800 -1.464400 0.209200 -1.673600 0.000000 0.000000
 583  582  586  587 3 -0.778 -2.335 0.000 3.113 -0.000 0.000
 583  582  586  588 3 -0.778 -2.335 0.000 3.113 -0.000 0.000
 583  582  586  589 3 -0.778 -2.335 0.000 3.113 -0.000 0.000
 584  582  583  585 4 180.000 10.460 2
 586  582  583  584 3 58.576 0.000 -58.576 -0.000 -0.000 0.000
 586  582  583  585 3 58.576 0.000 -58.576 -0.000 -0.000 0.000
 586  582  583  597 3 2.928800 -1.464400 0.209200 -1.673600 0.000000 0.000000
 583  597  598  599 3 0.627600 1.882800 0.000000 -2.510400 0.000000 0.000000
 583  597  598  600 3 0.627600 1.882800 0.000000 -2.510400 0.000000 0.000000
 583  597  598  612 3 2.928800 -1.464400 0.209200 -1.673600 0.000000 0.000000
 583  597  601  602 3 0.627600 1.882800 0.000000 -2.510400 0.000000 0.000000
 583  597  601  603 3 0.627600 1.882800 0.000000 -2.510400 0.000000 0.000000
 583  597  601  604 3 0.627600 1.882800 0.000000 -2.510400 0.000000 0.000000
 584  583  597  595 3 0.627600 1.882800 0.000000 -2.510400 0.000000 0.000000
 584  583  597  598 3 0.627600 1.882800 0.000000 -2.510400 0.000000 0.000000
 584  583  597  601 3 0.627600 1.882800 0.000000 -2.510400 0.000000 0.000000
 585  583  597  595 3 0.627600 1.882800 0.000000 -2.510400 0.000000 0.000000
 585  583  597  598 3 0.627600 1.882800 0.000000 -2.510400 0.000000 0.000000
 585  583  597  601 3 0.627600 1.882800 0.000000 -2.510400 0.000000 0.000000
 594  595  597  583 3 2.874410 0.581580 2.092000 -5.547990 0.000000 0.000000
 596  595  597  583 3 2.874410 0.581580 2.092000 -5.547990 0.000000 0.000000
 590  591  594  595 3 0.414 1.243 0.000 -1.657 -0.000 0.000
 591  594  595  596 3 21.439 0.000 -21.439 -0.000 -0.000 0.000
 591  594  595  597 3 31.206 -9.768 -21.439 -0.000 -0.000 0.000
 592  591  594  595 3 0.414 1.243 0.000 -1.657 -0.000 0.000
 593  591  594  595 3 0.414 1.243 0.000 -1.657 -0.000 0.000
 594  595  597  598 3 -5.858 -6.694 12.552 -0.000 -0.000 0.000
 594  595  597  601 3 1.789 -5.052 -0.962 4.226 -0.000 0.000
 596  594  595  597 4 180.000 43.932 2
 595  597  598  599 3 58.576 0.000 -58.576 -0.000 -0.000 0.000
 595  597  598  600 3 58.576 0.000 -58.576 -0.000 -0.000 0.000
 595  597  598  612 3 2.928800 -1.464400 0.209200 -1.673600 0.000000 0.000000
 595  597  601  602 3 -0.778 -2.335 0.000 3.113 -0.000 0.000
 595  597  601  603 3 -0.778 -2.335 0.000 3.113 -0.000 0.000
 595  597  601  604 3 -0.778 -2.335 0.000 3.113 -0.000 0.000
 596  595  597  598 3 30.334 -5.230 -25.104 -0.000 -0.000 0.000
 596  595  597  601 3 1.789 -5.052 -0.962 4.226 -0.000 0.000
 598  595  597  601 4 180.000 10.460 2
 597  598  612  610 3 2.928800 -1.464400 0.209200 -1.673600 0.000000 0.000000
 597  598  612  613 3 2.928800 -1.464400 0.209200 -1.673600 0.000000 0.000000
 597  598  612  616 3 2.928800 -1.464400 0.209200 -1.673600 0.000000 0.000000
 598  597  601  602 3 -0.778 -2.335 0.000 3.113 -0.000 0.000
 598  597  601  603 3 -0.778 -2.335 0.000 3.113 -0.000 0.000
 598  597  601  604 3 -0.778 -2.335 0.000 3.113 -0.000 0.000
 599  597  598  600 4 180.000 10.460 2
 601  597  598  599 3 58.576 0.000 -58.576 -0.000 -0.000 0.000
 601  597  598  600 3 58.576 0.000 -58.576 -0.000 -0.000 0.000
 601  597  598  612 3 2.928800 -1.464400 0.209200 -1.673600 0.000000 0.000000
 598  612  613  614 3 0.627600 1.882800 0.000000 -2.510400 0.000000 0.000000
 598  612  613  615 3 0.627600 1.882800 0.000000 -2.510400 0.000000 0.000000
 598  612  613  627 3 2.928800 -1.464400 0.209200 -1.673600 0.000000 0.000000
 598  612  616  617 3 0.627600 1.882800 0.000000 -2.510400 0.000000 0.000000
 598  612  616  618 3 0.627600 1.882800 0.000000 -2.510400 0.000000 0.000000
 598  612  616  619 3 0.627600 1.882800 0.000000 -2.510400 0.000000 0.000000
 599  598  612  610 3 0.627600 1.882800 0.000000 -2.510400 0.000000 0.000000
 599  598  612  613 3 0.627600 1.882800 0.000000 -2.510400 0.000000 0.000000
 599  598  612  616 3 0.627600 1.882800 0.000000 -2.510400 0.000000 0.000000
 600  598  612  610 3 0.627600 1.882800 0.000000 -2.510400 0.000000 0.000000
 600  598  612  613 3 0.627600 1.882800 0.000000 -2.510400 0.000000 0.000000
 600  598  612  616 3 0.627600 1.882800 0.000000 -2.510400 0.000000 0.000000
 609  610  612  598 3 2.874410 0.581580 2.092000 -5.547990 0.000000 0.000000
 611  610  612  598 3 2.874410 0.581580 2.092000 -5.547990 0.000000 0.000000
 605  606  609  610 3 0.414 1.243 0.000 -1.657 -0.000 0.000
 606  609  610  611 3 21.439 0.000 -21.439 -0.000 -0.000 0.000
 606  609  610  612 3 31.206 -9.768 -21.439 -0.000 -0.000 0.000
 607  606  609  610 3 0.414 1.243 0.000 -1.657 -0.000 0.000
 608  606  609  610 3 0.414 1.243 0.000 -1.657 -0.000 0.000
 609  610  612  613 3 -5.858 -6.694 12.552 -0.000 -0.000 0.000
 609  610  612  616 3 1.789 -5.052 -0.962 4.226 -0.000 0.000
 611  609  610  612 4 180.000 43.932 2
 610  612  613  614 3 58.576 0.000 -58.576 -0.000 -0.000 0.000
 610  612  613  615 3 58.576 0.000 -58.576 -0.000 -0.000 0.000
 610  612  613  627 3 2.928800 -1.464400 0.209200 -1.673600 0.000000 0.000000
 610  612  616  617 3 -0.778 -2.335 0.000 3.113 -0.000 0.000
 610  612  616  618 3 -0.778 -2.335 0.000 3.113 -0.000 0.000
 610  612  616  619 3 -0.778 -2.335 0.000 3.113 -0.000 0.000
 611  610  612  613 3 30.334 -5.230 -25.104 -0.000 -0.000 0.000
 611  610  612  616 3 1.789 -5.052 -0.962 4.226 -0.000 0.000
 613  610  612  616 4 180.000 10.460 2
 612  613  627  625 3 2.928800 -1.464400 0.209200 -1.673600 0.000000 0.000000
 612  613  627  628 3 2.928800 -1.464400 0.209200 -1.673600 0.000000 0.000000
 612  613  627  631 3 2.928800 -1.464400 0.209200 -1.673600 0.000000 0.000000
 613  612  616  617 3 -0.778 -2.335 0.000 3.113 -0.000 0.000
 613  612  616  618 3 -0.778 -2.335 0.000 3.113 -0.000 0.000
 613  612  616  619 3 -0.778 -2.335 0.000 3.113 -0.000 0.000
 614  612  613  615 4 180.000 10.460 2
 616  612  613  614 3 58.576 0.000 -58.576 -0.000 -0.000 0.000
 616  612  613  615 3 58.576 0.000 -58.576 -0.000 -0.000 0.000
 616  612  613  627 3 2.928800 -1.464400 0.209200 -1.673600 0.000000 0.000000
 613  627  628  629 3 0.627600 1.882800 0.000000 -2.510400 0.000000 0.000000
 613  627  628  630 3 0.627600 1.882800 0.000000 -2.510400 0.000000 0.000000
 613  627  628  642 3 2.928800 -1.464400 0.209200 -1.673600 0.000000 0.000000
 613  627  631  632 3 0.627600 1.882800 0.000000 -2.510400 0.000000 0.000000
 613  627  631  633 3 0.627600 1.882800 0.000000 -2.510400 0.000000 0.000000
 613  627  631  634 3 0.627600 1.882800 0.000000 -2.510400 0.000000 0.000000
 614  613  627  625 3 0.627600 1.882800 0.000000 -2.510400 0.000000 0.000000
 614  613  627  628 3 0.627600 1.882800 0.000000 -2.510400 0.000000 0.000000
 614  613  627  631 3 0.627600 1.882800 0.000000 -2.510400 0.000000 0.000000
 615  613  627  625 3 0.627600 1.882800 0.000000 -2.510400 0.000000 0.000000
 615  613  627  628 3 0.627600 1.882800 0.000000 -2.510400 0.000000 0.000000
 615  613  627  631 3 0.627600 1.882800 0.000000 -2.510400 0.000000 0.000000
 624  625  627  613 3 2.874410 0.581580 2.092000 -5.547990 0.000000 0.000000
 626  625  627  613 3 2.874410 0.581580 2.092000 -5.547990 0.000000 0.000000
 620  621  624  625 3 0.414 1.243 0.000 -1.657 -0.000 0.000
 621  624  625  626 3 21.439 0.000 -21.439 -0.000 -0.000 0.000
 621  624  625  627 3 31.206 -9.768 -21.439 -0.000 -0.000 0.000
 622  621  624  625 3 0.414 1.243 0.000 -1.657 -0.000 0.000
 623  621  624  625 3 0.414 1.243 0.000 -1.657 -0.000 0.000
 624  625  627  628 3 -5.858 -6.694 12.552 -0.000 -0.000 0.000
 624  625  627  631 3 1.789 -5.052 -0.962 4.226 -0.000 0.000
 626  624  625  627 4 180.000 43.932 2
 625  627  628  629 3 58.576 0.000 -58.576 -0.000 -0.000 0.000
 625  627  628  630 3 58.576 0.000 -58.576 -0.000 -0.000 0.000
 625  627  628  642 3 2.928800 -1.464400 0.209200 -1.673600 0.000000 0.000000
 625  627  631  632 3 -0.778 -2.335 0.000 3.113 -0.000 0.000
 625  627  631  633 3 -0.778 -2.335 0.000 3.113 -0.000 0.000
 625  627  631  634 3 -0.778 -2.335 0.000 3.113 -0.000 0.000
 626  625  627  628 3 30.334 -5.230 -25.104 -0.000 -0.000 0.000
 626  625  627  631 3 1.789 -5.052 -0.962 4.226 -0.000 0.000
 628  625  627  631 4 180.000 10.460 2
 627  628  642  640 3 2.928800 -1.464400 0.209200 -1.673600 0.000000 0.000000
 627  628  642  643 3 2.928800 -1.464400 0.209200 -1.673600 0.000000 0.000000
 627  628  642  646 3 2.928800 -1.464400 0.209200 -1.673600 0.000000 0.000000
 628  627  631  632 3 -0.778 -2.335 0.000 3.113 -0.000 0.000
 628  627  631  633 3 -0.778 -2.335 0.000 3.113 -0.000 0.000
 628  627  631  634 3 -0.778 -2.335 0.000 3.113 -0.000 0.000
 629  627  628  630 4 180.000 10.460 2
 631  627  628  629 3 58.576 0.000 -58.576 -0.000 -0.000 0.000
 631  627  628  630 3 58.576 0.000 -58.576 -0.000 -0.000 0.000
 631  627  628  642 3 2.928800 -1.464400 0.209200 -1.673600 0.000000 0.000000
 628  642  643  644 3 0.627600 1.882800 0.000000 -2.510400 0.000000 0.000000
 628  642  643  645 3 0.627600 1.882800 0.000000 -2.510400 0.000000 0.000000
 628  642  643  657 3 2.928800 -1.464400 0.209200 -1.673600 0.000000 0.000000
 628  642  646  647 3 0.627600 1.882800 0.000000 -2.510400 0.000000 0.000000
 628  642  646  648 3 0.627600 1.882800 0.000000 -2.510400 0.000000 0.000000
 628  642  646  649 3 0.627600 1.882800 0.000000 -2.510400 0.000000 0.000000
 629  628  642  640 3 0.627600 1.882800 0.000000 -2.510400 0.000000 0.000000
 629  628  642  643 3 0.627600 1.882800 0.000000 -2.510400 0.000000 0.000000
 629  628  642  646 3 0.627600 1.882800 0.000000 -2.510400 0.000000 0.000000
 630  628  642  640 3 0.627600 1.882800 0.000000 -2.510400 0.000000 0.000000
 630  628  642  643 3 0.627600 1.882800 0.000000 -2.510400 0.000000 0.000000
 630  628  642  646 3 0.627600 1.882800 0.000000 -2.510400 0.000000 0.000000
 639  640  642  628 3 2.874410 0.581580 2.092000 -5.547990 0.000000 0.000000
 641  640  642  628 3 2.874410 0.581580 2.092000 -5.547990 0.000000 0.000000
 635  636  639  640 3 0.414 1.243 0.000 -1.657 -0.000 0.000
 636  639  640  641 3 21.439 0.000 -21.439 -0.000 -0.000 0.000
 636  639  640  642 3 31.206 -9.768 -21.439 -0.000 -0.000 0.000
 637  636  639  640 3 0.414 1.243 0.000 -1.657 -0.000 0.000
 638  636  639  640 3 0.414 1.243 0.000 -1.657 -0.000 0.000
 639  640  642  643 3 -5.858 -6.694 12.552 -0.000 -0.000 0.000
 639  640  642  646 3 1.789 -5.052 -0.962 4.226 -0.000 0.000
 641  639  640  642 4 180.000 43.932 2
 640  642  643  644 3 58.576 0.000 -58.576 -0.000 -0.000 0.000
 640  642  643  645 3 58.576 0.000 -58.576 -0.000 -0.000 0.000
 640  642  643  657 3 2.928800 -1.464400 0.209200 -1.673600 0.000000 0.000000
 640  642  646  647 3 -0.778 -2.335 0.000 3.113 -0.000 0.000
 640  642  646  648 3 -0.778 -2.335 0.000 3.113 -0.000 0.000
 640  642  646  649 3 -0.778 -2.335 0.000 3.113 -0.000 0.000
 641  640  642  643 3 30.334 -5.230 -25.104 -0.000 -0.000 0.000
 641  640  642  646 3 1.789 -5.052 -0.962 4.226 -0.000 0.000
 643  640  642  646 4 180.000 10.460 2
 642  643  657  655 3 2.928800 -1.464400 0.209200 -1.673600 0.000000 0.000000
 642  643  657  658 3 2.928800 -1.464400 0.209200 -1.673600 0.000000 0.000000
 642  643  657  661 3 2.928800 -1.464400 0.209200 -1.673600 0.000000 0.000000
 643  642  646  647 3 -0.778 -2.335 0.000 3.113 -0.000 0.000
 643  642  646  648 3 -0.778 -2.335 0.000 3.113 -0.000 0.000
 643  642  646  649 3 -0.778 -2.335 0.000 3.113 -0.000 0.000
 644  642  643  645 4 180.000 10.460 2
 646  642  643  644 3 58.576 0.000 -58.576 -0.000 -0.000 0.000
 646  642  643  645 3 58.576 0.000 -58.576 -0.000 -0.000 0.000
 646  642  643  657 3 2.928800 -1.464400 0.209200 -1.673600 0.000000 0.000000
 643  657  658  659 3 0.627600 1.882800 0.000000 -2.510400 0.000000 0.000000
 643  657  658  660 3 0.627600 1.882800 0.000000 -2.510400 0.000000 0.000000
 643  657  658  672 3 2.928800 -1.464400 0.209200 -1.673600 0.000000 0.000000
 643  657  661  662 3 0.627600 1.882800 0.000000 -2.510400 0.000000 0.000000
 643  657  661  663 3 0.627600 1.882800 0.000000 -2.510400 0.000000 0.000000
 643  657  661  664 3 0.627600 1.882800 0.000000 -2.510400 0.000000 0.000000
 644  643  657  655 3 0.627600 1.882800 0.000000 -2.510400 0.000000 0.000000
 644  643  657  658 3 0.627600 1.882800 0.000000 -2.510400 0.000000 0.000000
 644  643  657  661 3 0.627600 1.882800 0.000000 -2.510400 0.000000 0.000000
 645  643  657  655 3 0.627600 1.882800 0.000000 -2.510400 0.000000 0.000000
 645  643  657  658 3 0.627600 1.882800 0.000000 -2.510400 0.000000 0.000000
 645  643  657  661 3 0.627600 1.882800 0.000000 -2.510400 0.000000 0.000000
 654  655  657  643 3 2.874410 0.581580 2.092000 -5.547990 0.000000 0.000000
 656  655  657  643 3 2.874410 0.581580 2.092000 -5.547990 0.000000 0.000000
 650  651  654  655 3 0.414 1.243 0.000 -1.657 -0.000 0.000
 651  654  655  656 3 21.439 0.000 -21.439 -0.000 -0.000 0.000
 651  654  655  657 3 31.206 -9.768 -21.439 -0.000 -0.000 0.000
 652  651  654  655 3 0.414 1.243 0.000 -1.657 -0.000 0.000
 653  651  654  655 3 0.414 1.243 0.000 -1.657 -0.000 0.000
 654  655  657  658 3 -5.858 -6.694 12.552 -0.000 -0.000 0.000
 654  655  657  661 3 1.789 -5.052 -0.962 4.226 -0.000 0.000
 656  654  655  657 4 180.000 43.932 2
 655  657  658  659 3 58.576 0.000 -58.576 -0.000 -0.000 0.000
 655  657  658  660 3 58.576 0.000 -58.576 -0.000 -0.000 0.000
 655  657  658  672 3 2.928800 -1.464400 0.209200 -1.673600 0.000000 0.000000
 655  657  661  662 3 -0.778 -2.335 0.000 3.113 -0.000 0.000
 655  657  661  663 3 -0.778 -2.335 0.000 3.113 -0.000 0.000
 655  657  661  664 3 -0.778 -2.335 0.000 3.113 -0.000 0.000
 656  655  657  658 3 30.334 -5.230 -25.104 -0.000 -0.000 0.000
 656  655  657  661 3 1.789 -5.052 -0.962 4.226 -0.000 0.000
 658  655  657  661 4 180.000 10.460 2
 657  658  672  670 3 2.928800 -1.464400 0.209200 -1.673600 0.000000 0.000000
 657  658  672  673 3 2.928800 -1.464400 0.209200 -1.673600 0.000000 0.000000
 657  658  672  676 3 2.928800 -1.464400 0.209200 -1.673600 0.000000 0.000000
 658  657  661  662 3 -0.778 -2.335 0.000 3.113 -0.000 0.000
 658  657  661  663 3 -0.778 -2.335 0.000 3.113 -0.000 0.000
 658  657  661  664 3 -0.778 -2.335 0.000 3.113 -0.000 0.000
 659  657  658  660 4 180.000 10.460 2
 661  657  658  659 3 58.576 0.000 -58.576 -0.000 -0.000 0.000
 661  657  658  660 3 58.576 0.000 -58.576 -0.000 -0.000 0.000
 661  657  658  672 3 2.928800 -1.464400 0.209200 -1.673600 0.000000 0.000000
 658  672  673  674 3 0.627600 1.882800 0.000000 -2.510400 0.000000 0.000000
 658  672  673  675 3 0.627600 1.882800 0.000000 -2.510400 0.000000 0.000000
 658  672  673  687 3 2.928800 -1.464400 0.209200 -1.673600 0.000000 0.000000
 658  672  676  677 3 0.627600 1.882800 0.000000 -2.510400 0.000000 0.000000
 658  672  676  678 3 0.627600 1.882800 0.000000 -2.510400 0.000000 0.000000
 658  672  676  679 3 0.627600 1.882800 0.000000 -2.510400 0.000000 0.000000
 659  658  672  670 3 0.627600 1.882800 0.000000 -2.510400 0.000000 0.000000
 659  658  672  673 3 0.627600 1.882800 0.000000 -2.510400 0.000000 0.000000
 659  658  672  676 3 0.627600 1.882800 0.000000 -2.510400 0.000000 0.000000
 660  658  672  670 3 0.627600 1.882800 0.000000 -2.510400 0.000000 0.000000
 660  658  672  673 3 0.627600 1.882800 0.000000 -2.510400 0.000000 0.000000
 660  658  672  676 3 0.627600 1.882800 0.000000 -2.510400 0.000000 0.000000
 669  670  672  658 3 2.874410 0.581580 2.092000 -5.547990 0.000000 0.000000
 671  670  672  658 3 2.874410 0.581580 2.092000 -5.547990 0.000000 0.000000
 665  666  669  670 3 0.414 1.243 0.000 -1.657 -0.000 0.000
 666  669  670  671 3 21.439 0.000 -21.439 -0.000 -0.000 0.000
 666  669  670  672 3 31.206 -9.768 -21.439 -0.000 -0.000 0.000
 667  666  669  670 3 0.414 1.243 0.000 -1.657 -0.000 0.000
 668  666  669  670 3 0.414 1.243 0.000 -1.657 -0.000 0.000
 669  670  672  673 3 -5.858 -6.694 12.552 -0.000 -0.000 0.000
 669  670  672  676 3 1.789 -5.052 -0.962 4.226 -0.000 0.000
 671  669  670  672 4 180.000 43.932 2
 670  672  673  674 3 58.576 0.000 -58.576 -0.000 -0.000 0.000
 670  672  673  675 3 58.576 0.000 -58.576 -0.000 -0.000 0.000
 670  672  673  687 3 2.928800 -1.464400 0.209200 -1.673600 0.000000 0.000000
 670  672  676  677 3 -0.778 -2.335 0.000 3.113 -0.000 0.000
 670  672  676  678 3 -0.778 -2.335 0.000 3.113 -0.000 0.000
 670  672  676  679 3 -0.778 -2.335 0.000 3.113 -0.000 0.000
 671  670  672  673 3 30.334 -5.230 -25.104 -0.000 -0.000 0.000
 671  670  672  676 3 1.789 -5.052 -0.962 4.226 -0.000 0.000
 673  670  672  676 4 180.000 10.460 2
 672  673  687  685 3 2.928800 -1.464400 0.209200 -1.673600 0.000000 0.000000
 672  673  687  688 3 2.928800 -1.464400 0.209200 -1.673600 0.000000 0.000000
 672  673  687  691 3 2.928800 -1.464400 0.209200 -1.673600 0.000000 0.000000
 673  672  676  677 3 -0.778 -2.335 0.000 3.113 -0.000 0.000
 673  672  676  678 3 -0.778 -2.335 0.000 3.113 -0.000 0.000
 673  672  676  679 3 -0.778 -2.335 0.000 3.113 -0.000 0.000
 674  672  673  675 4 180.000 10.460 2
 676  672  673  674 3 58.576 0.000 -58.576 -0.000 -0.000 0.000
 676  672  673  675 3 58.576 0.000 -58.576 -0.000 -0.000 0.000
 676  672  673  687 3 2.928800 -1.464400 0.209200 -1.673600 0.000000 0.000000
 673  687  688  689 3 0.627600 1.882800 0.000000 -2.510400 0.000000 0.000000
 673  687  688  690 3 0.627600 1.882800 0.000000 -2.510400 0.000000 0.000000
 673  687  688  702 3 2.928800 -1.464400 0.209200 -1.673600 0.000000 0.000000
 673  687  691  692 3 0.627600 1.882800 0.000000 -2.510400 0.000000 0.000000
 673  687  691  693 3 0.627600 1.882800 0.000000 -2.510400 0.000000 0.000000
 673  687  691  694 3 0.627600 1.882800 0.000000 -2.510400 0.000000 0.000000
 674  673  687  685 3 0.627600 1.882800 0.000000 -2.510400 0.000000 0.000000
 674  673  687  688 3 0.627600 1.882800 0.000000 -2.510400 0.000000 0.000000
 674  673  687  691 3 0.627600 1.882800 0.000000 -2.510400 0.000000 0.000000
 675  673  687  685 3 0.627600 1.882800 0.000000 -2.510400 0.000000 0.000000
 675  673  687  688 3 0.627600 1.882800 0.000000 -2.510400 0.000000 0.000000
 675  673  687  691 3 0.627600 1.882800 0.000000 -2.510400 0.000000 0.000000
 684  685  687  673 3 2.874410 0.581580 2.092000 -5.547990 0.000000 0.000000
 686  685  687  673 3 2.874410 0.581580 2.092000 -5.547990 0.000000 0.000000
 680  681  684  685 3 0.414 1.243 0.000 -1.657 -0.000 0.000
 681  684  685  686 3 21.439 0.000 -21.439 -0.000 -0.000 0.000
 681  684  685  687 3 31.206 -9.768 -21.439 -0.000 -0.000 0.000
 682  681  684  685 3 0.414 1.243 0.000 -1.657 -0.000 0.000
 683  681  684  685 3 0.414 1.243 0.000 -1.657 -0.000 0.000
 684  685  687  688 3 -5.858 -6.694 12.552 -0.000 -0.000 0.000
 684  685  687  691 3 1.789 -5.052 -0.962 4.226 -0.000 0.000
 686  684  685  687 4 180.000 43.932 2
 685  687  688  689 3 58.576 0.000 -58.576 -0.000 -0.000 0.000
 685  687  688  690 3 58.576 0.000 -58.576 -0.000 -0.000 0.000
 685  687  688  702 3 2.928800 -1.464400 0.209200 -1.673600 0.000000 0.000000
 685  687  691  692 3 -0.778 -2.335 0.000 3.113 -0.000 0.000
 685  687  691  693 3 -0.778 -2.335 0.000 3.113 -0.000 0.000
 685  687  691  694 3 -0.778 -2.335 0.000 3.113 -0.000 0.000
 686  685  687  688 3 30.334 -5.230 -25.104 -0.000 -0.000 0.000
 686  685  687  691 3 1.789 -5.052 -0.962 4.226 -0.000 0.000
 688  685  687  691 4 180.000 10.460 2
 687  688  702  700 3 2.928800 -1.464400 0.209200 -1.673600 0.000000 0.000000
 687  688  702  703 3 2.928800 -1.464400 0.209200 -1.673600 0.000000 0.000000
 687  688  702  706 3 2.928800 -1.464400 0.209200 -1.673600 0.000000 0.000000
 688  687  691  692 3 -0.778 -2.335 0.000 3.113 -0.000 0.000
 688  687  691  693 3 -0.778 -2.335 0.000 3.113 -0.000 0.000
 688  687  691  694 3 -0.778 -2.335 0.000 3.113 -0.000 0.000
 689  687  688  690 4 180.000 10.460 2
 691  687  688  689 3 58.576 0.000 -58.576 -0.000 -0.000 0.000
 691  687  688  690 3 58.576 0.000 -58.576 -0.000 -0.000 0.000
 691  687  688  702 3 2.928800 -1.464400 0.209200 -1.673600 0.000000 0.000000
 688  702  703  704 3 0.627600 1.882800 0.000000 -2.510400 0.000000 0.000000
 688  702  703  705 3 0.627600 1.882800 0.000000 -2.510400 0.000000 0.000000
 688  702  703  717 3 2.928800 -1.464400 0.209200 -1.673600 0.000000 0.000000
 688  702  706  707 3 0.627600 1.882800 0.000000 -2.510400 0.000000 0.000000
 688  702  706  708 3 0.627600 1.882800 0.000000 -2.510400 0.000000 0.000000
 688  702  706  709 3 0.627600 1.882800 0.000000 -2.510400 0.000000 0.000000
 689  688  702  700 3 0.627600 1.882800 0.000000 -2.510400 0.000000 0.000000
 689  688  702  703 3 0.627600 1.882800 0.000000 -2.510400 0.000000 0.000000
 689  688  702  706 3 0.627600 1.882800 0.000000 -2.510400 0.000000 0.000000
 690  688  702  700 3 0.627600 1.882800 0.000000 -2.510400 0.000000 0.000000
 690  688  702  703 3 0.627600 1.882800 0.000000 -2.510400 0.000000 0.000000
 690  688  702  706 3 0.627600 1.882800 0.000000 -2.510400 0.000000 0.000000
 699  700  702  688 3 2.874410 0.581580 2.092000 -5.547990 0.000000 0.000000
 701  700  702  688 3 2.874410 0.581580 2.092000 -5.547990 0.000000 0.000000
 695  696  699  700 3 0.414 1.243 0.000 -1.657 -0.000 0.000
 696  699  700  701 3 21.439 0.000 -21.439 -0.000 -0.000 0.000
 696  699  700  702 3 31.206 -9.768 -21.439 -0.000 -0.000 0.000
 697  696  699  700 3 0.414 1.243 0.000 -1.657 -0.000 0.000
 698  696  699  700 3 0.414 1.243 0.000 -1.657 -0.000 0.000
 699  700  702  703 3 -5.858 -6.694 12.552 -0.000 -0.000 0.000
 699  700  702  706 3 1.789 -5.052 -0.962 4.226 -0.000 0.000
 701  699  700  702 4 180.000 43.932 2
 700  702  703  704 3 58.576 0.000 -58.576 -0.000 -0.000 0.000
 700  702  703  705 3 58.576 0.000 -58.576 -0.000 -0.000 0.000
 700  702  703  717 3 2.928800 -1.464400 0.209200 -1.673600 0.000000 0.000000
 700  702  706  707 3 -0.778 -2.335 0.000 3.113 -0.000 0.000
 700  702  706  708 3 -0.778 -2.335 0.000 3.113 -0.000 0.000
 700  702  706  709 3 -0.778 -2.335 0.000 3.113 -0.000 0.000
 701  700  702  703 3 30.334 -5.230 -25.104 -0.000 -0.000 0.000
 701  700  702  706 3 1.789 -5.052 -0.962 4.226 -0.000 0.000
 703  700  702  706 4 180.000 10.460 2
 702  703  717  715 3 2.928800 -1.464400 0.209200 -1.673600 0.000000 0.000000
 702  703  717  718 3 2.928800 -1.464400 0.209200 -1.673600 0.000000 0.000000
 702  703  717  721 3 2.928800 -1.464400 0.209200 -1.673600 0.000000 0.000000
 703  702  706  707 3 -0.778 -2.335 0.000 3.113 -0.000 0.000
 703  702  706  708 3 -0.778 -2.335 0.000 3.113 -0.000 0.000
 703  702  706  709 3 -0.778 -2.335 0.000 3.113 -0.000 0.000
 704  702  703  705 4 180.000 10.460 2
 706  702  703  704 3 58.576 0.000 -58.576 -0.000 -0.000 0.000
 706  702  703  705 3 58.576 0.000 -58.576 -0.000 -0.000 0.000
 706  702  703  717 3 2.928800 -1.464400 0.209200 -1.673600 0.000000 0.000000
 703  717  718  719 3 0.627600 1.882800 0.000000 -2.510400 0.000000 0.000000
 703  717  718  720 3 0.627600 1.882800 0.000000 -2.510400 0.000000 0.000000
 703  717  718  732 3 2.928800 -1.464400 0.209200 -1.673600 0.000000 0.000000
 703  717  721  722 3 0.627600 1.882800 0.000000 -2.510400 0.000000 0.000000
 703  717  721  723 3 0.627600 1.882800 0.000000 -2.510400 0.000000 0.000000
 703  717  721  724 3 0.627600 1.882800 0.000000 -2.510400 0.000000 0.000000
 704  703  717  715 3 0.627600 1.882800 0.000000 -2.510400 0.000000 0.000000
 704  703  717  718 3 0.627600 1.882800 0.000000 -2.510400 0.000000 0.000000
 704  703  717  721 3 0.627600 1.882800 0.000000 -2.510400 0.000000 0.000000
 705  703  717  715 3 0.627600 1.882800 0.000000 -2.510400 0.000000 0.000000
 705  703  717  718 3 0.627600 1.882800 0.000000 -2.510400 0.000000 0.000000
 705  703  717  721 3 0.627600 1.882800 0.000000 -2.510400 0.000000 0.000000
 714  715  717  703 3 2.874410 0.581580 2.092000 -5.547990 0.000000 0.000000
 716  715  717  703 3 2.874410 0.581580 2.092000 -5.547990 0.000000 0.000000
 710  711  714  715 3 0.414 1.243 0.000 -1.657 -0.000 0.000
 711  714  715  716 3 21.439 0.000 -21.439 -0.000 -0.000 0.000
 711  714  715  717 3 31.206 -9.768 -21.439 -0.000 -0.000 0.000
 712  711  714  715 3 0.414 1.243 0.000 -1.657 -0.000 0.000
 713  711  714  715 3 0.414 1.243 0.000 -1.657 -0.000 0.000
 714  715  717  718 3 -5.858 -6.694 12.552 -0.000 -0.000 0.000
 714  715  717  721 3 1.789 -5.052 -0.962 4.226 -0.000 0.000
 716  714  715  717 4 180.000 43.932 2
 715  717  718  719 3 58.576 0.000 -58.576 -0.000 -0.000 0.000
 715  717  718  720 3 58.576 0.000 -58.576 -0.000 -0.000 0.000
 715  717  718  732 3 2.928800 -1.464400 0.209200 -1.673600 0.000000 0.000000
 715  717  721  722 3 -0.778 -2.335 0.000 3.113 -0.000 0.000
 715  717  721  723 3 -0.778 -2.335 0.000 3.113 -0.000 0.000
 715  717  721  724 3 -0.778 -2.335 0.000 3.113 -0.000 0.000
 716  715  717  718 3 30.334 -5.230 -25.104 -0.000 -0.000 0.000
 716  715  717  721 3 1.789 -5.052 -0.962 4.226 -0.000 0.000
 718  715  717  721 4 180.000 10.460 2
 717  718  732  730 3 2.928800 -1.464400 0.209200 -1.673600 0.000000 0.000000
 717  718  732  733 3 2.928800 -1.464400 0.209200 -1.673600 0.000000 0.000000
 717  718  732  736 3 2.928800 -1.464400 0.209200 -1.673600 0.000000 0.000000
 718  717  721  722 3 -0.778 -2.335 0.000 3.113 -0.000 0.000
 718  717  721  723 3 -0.778 -2.335 0.000 3.113 -0.000 0.000
 718  717  721  724 3 -0.778 -2.335 0.000 3.113 -0.000 0.000
 719  717  718  720 4 180.000 10.460 2
 721  717  718  719 3 58.576 0.000 -58.576 -0.000 -0.000 0.000
 721  717  718  720 3 58.576 0.000 -58.576 -0.000 -0.000 0.000
 721  717  718  732 3 2.928800 -1.464400 0.209200 -1.673600 0.000000 0.000000
 718  732  733  734 3 0.627600 1.882800 0.000000 -2.510400 0.000000 0.000000
 718  732  733  735 3 0.627600 1.882800 0.000000 -2.510400 0.000000 0.000000
 718  732  733  747 3 2.928800 -1.464400 0.209200 -1.673600 0.000000 0.000000
 718  732  736  737 3 0.627600 1.882800 0.000000 -2.510400 0.000000 0.000000
 718  732  736  738 3 0.627600 1.882800 0.000000 -2.510400 0.000000 0.000000
 718  732  736  739 3 0.627600 1.882800 0.000000 -2.510400 0.000000 0.000000
 719  718  732  730 3 0.627600 1.882800 0.000000 -2.510400 0.000000 0.000000
 719  718  732  733 3 0.627600 1.882800 0.000000 -2.510400 0.000000 0.000000
 719  718  732  736 3 0.627600 1.882800 0.000000 -2.510400 0.000000 0.000000
 720  718  732  730 3 0.627600 1.882800 0.000000 -2.510400 0.000000 0.000000
 720  718  732  733 3 0.627600 1.882800 0.000000 -2.510400 0.000000 0.000000
 720  718  732  736 3 0.627600 1.882800 0.000000 -2.510400 0.000000 0.000000
 729  730  732  718 3 2.874410 0.581580 2.092000 -5.547990 0.000000 0.000000
 731  730  732  718 3 2.874410 0.581580 2.092000 -5.547990 0.000000 0.000000
 725  726  729  730 3 0.414 1.243 0.000 -1.657 -0.000 0.000
 726  729  730  731 3 21.439 0.000 -21.439 -0.000 -0.000 0.000
 726  729  730  732 3 31.206 -9.768 -21.439 -0.000 -0.000 0.000
 727  726  729  730 3 0.414 1.243 0.000 -1.657 -0.000 0.000
 728  726  729  730 3 0.414 1.243 0.000 -1.657 -0.000 0.000
 729  730  732  733 3 -5.858 -6.694 12.552 -0.000 -0.000 0.000
 729  730  732  736 3 1.789 -5.052 -0.962 4.226 -0.000 0.000
 731  729  730  732 4 180.000 43.932 2
 730  732  733  734 3 58.576 0.000 -58.576 -0.000 -0.000 0.000
 730  732  733  735 3 58.576 0.000 -58.576 -0.000 -0.000 0.000
 730  732  733  747 3 2.928800 -1.464400 0.209200 -1.673600 0.000000 0.000000
 730  732  736  737 3 -0.778 -2.335 0.000 3.113 -0.000 0.000
 730  732  736  738 3 -0.778 -2.335 0.000 3.113 -0.000 0.000
 730  732  736  739 3 -0.778 -2.335 0.000 3.113 -0.000 0.000
 731  730  732  733 3 30.334 -5.230 -25.104 -0.000 -0.000 0.000
 731  730  732  736 3 1.789 -5.052 -0.962 4.226 -0.000 0.000
 733  730  732  736 4 180.000 10.460 2
 732  733  747  745 3 2.928800 -1.464400 0.209200 -1.673600 0.000000 0.000000
 732  733  747  748 3 2.928800 -1.464400 0.209200 -1.673600 0.000000 0.000000
 732  733  747  751 3 2.928800 -1.464400 0.209200 -1.673600 0.000000 0.000000
 733  732  736  737 3 -0.778 -2.335 0.000 3.113 -0.000 0.000
 733  732  736  738 3 -0.778 -2.335 0.000 3.113 -0.000 0.000
 733  732  736  739 3 -0.778 -2.335 0.000 3.113 -0.000 0.000
 734  732  733  735 4 180.000 10.460 2
 736  732  733  734 3 58.576 0.000 -58.576 -0.000 -0.000 0.000
 736  732  733  735 3 58.576 0.000 -58.576 -0.000 -0.000 0.000
 736  732  733  747 3 2.928800 -1.464400 0.209200 -1.673600 0.000000 0.000000
 733  747  748  749 3 0.627600 1.882800 0.000000 -2.510400 0.000000 0.000000
 733  747  748  750 3 0.627600 1.882800 0.000000 -2.510400 0.000000 0.000000
 733  747  748  762 3 2.928800 -1.464400 0.209200 -1.673600 0.000000 0.000000
 733  747  751  752 3 0.627600 1.882800 0.000000 -2.510400 0.000000 0.000000
 733  747  751  753 3 0.627600 1.882800 0.000000 -2.510400 0.000000 0.000000
 733  747  751  754 3 0.627600 1.882800 0.000000 -2.510400 0.000000 0.000000
 734  733  747  745 3 0.627600 1.882800 0.000000 -2.510400 0.000000 0.000000
 734  733  747  748 3 0.627600 1.882800 0.000000 -2.510400 0.000000 0.000000
 734  733  747  751 3 0.627600 1.882800 0.000000 -2.510400 0.000000 0.000000
 735  733  747  745 3 0.627600 1.882800 0.000000 -2.510400 0.000000 0.000000
 735  733  747  748 3 0.627600 1.882800 0.000000 -2.510400 0.000000 0.000000
 735  733  747  751 3 0.627600 1.882800 0.000000 -2.510400 0.000000 0.000000
 744  745  747  733 3 2.874410 0.581580 2.092000 -5.547990 0.000000 0.000000
 746  745  747  733 3 2.874410 0.581580 2.092000 -5.547990 0.000000 0.000000
 740  741  744  745 3 0.414 1.243 0.000 -1.657 -0.000 0.000
 741  744  745  746 3 21.439 0.000 -21.439 -0.000 -0.000 0.000
 741  744  745  747 3 31.206 -9.768 -21.439 -0.000 -0.000 0.000
 742  741  744  745 3 0.414 1.243 0.000 -1.657 -0.000 0.000
 743  741  744  745 3 0.414 1.243 0.000 -1.657 -0.000 0.000
 744  745  747  748 3 -5.858 -6.694 12.552 -0.000 -0.000 0.000
 744  745  747  751 3 1.789 -5.052 -0.962 4.226 -0.000 0.000
 746  744  745  747 4 180.000 43.932 2
 745  747  748  749 3 58.576 0.000 -58.576 -0.000 -0.000 0.000
 745  747  748  750 3 58.576 0.000 -58.576 -0.000 -0.000 0.000
 745  747  748  762 3 2.928800 -1.464400 0.209200 -1.673600 0.000000 0.000000
 745  747  751  752 3 -0.778 -2.335 0.000 3.113 -0.000 0.000
 745  747  751  753 3 -0.778 -2.335 0.000 3.113 -0.000 0.000
 745  747  751  754 3 -0.778 -2.335 0.000 3.113 -0.000 0.000
 746  745  747  748 3 30.334 -5.230 -25.104 -0.000 -0.000 0.000
 746  745  747  751 3 1.789 -5.052 -0.962 4.226 -0.000 0.000
 748  745  747  751 4 180.000 10.460 2
 747  748  762  760 3 2.928800 -1.464400 0.209200 -1.673600 0.000000 0.000000
 747  748  762  763 3 2.928800 -1.464400 0.209200 -1.673600 0.000000 0.000000
 747  748  762  766 3 2.928800 -1.464400 0.209200 -1.673600 0.000000 0.000000
 748  747  751  752 3 -0.778 -2.335 0.000 3.113 -0.000 0.000
 748  747  751  753 3 -0.778 -2.335 0.000 3.113 -0.000 0.000
 748  747  751  754 3 -0.778 -2.335 0.000 3.113 -0.000 0.000
 749  747  748  750 4 180.000 10.460 2
 751  747  748  749 3 58.576 0.000 -58.576 -0.000 -0.000 0.000
 751  747  748  750 3 58.576 0.000 -58.576 -0.000 -0.000 0.000
 751  747  748  762 3 2.928800 -1.464400 0.209200 -1.673600 0.000000 0.000000
 748  762  763  764 3 0.627600 1.882800 0.000000 -2.510400 0.000000 0.000000
 748  762  763  765 3 0.627600 1.882800 0.000000 -2.510400 0.000000 0.000000
 748  762  763  777 3 2.928800 -1.464400 0.209200 -1.673600 0.000000 0.000000
 748  762  766  767 3 0.627600 1.882800 0.000000 -2.510400 0.000000 0.000000
 748  762  766  768 3 0.627600 1.882800 0.000000 -2.510400 0.000000 0.000000
 748  762  766  769 3 0.627600 1.882800 0.000000 -2.510400 0.000000 0.000000
 749  748  762  760 3 0.627600 1.882800 0.000000 -2.510400 0.000000 0.000000
 749  748  762  763 3 0.627600 1.882800 0.000000 -2.510400 0.000000 0.000000
 749  748  762  766 3 0.627600 1.882800 0.000000 -2.510400 0.000000 0.000000
 750  748  762  760 3 0.627600 1.882800 0.000000 -2.510400 0.000000 0.000000
 750  748  762  763 3 0.627600 1.882800 0.000000 -2.510400 0.000000 0.000000
 750  748  762  766 3 0.627600 1.882800 0.000000 -2.510400 0.000000 0.000000
 759  760  762  748 3 2.874410 0.581580 2.092000 -5.547990 0.000000 0.000000
 761  760  762  748 3 2.874410 0.581580 2.092000 -5.547990 0.000000 0.000000
 755  756  759  760 3 0.414 1.243 0.000 -1.657 -0.000 0.000
 756  759  760  761 3 21.439 0.000 -21.439 -0.000 -0.000 0.000
 756  759  760  762 3 31.206 -9.768 -21.439 -0.000 -0.000 0.000
 757  756  759  760 3 0.414 1.243 0.000 -1.657 -0.000 0.000
 758  756  759  760 3 0.414 1.243 0.000 -1.657 -0.000 0.000
 759  760  762  763 3 -5.858 -6.694 12.552 -0.000 -0.000 0.000
 759  760  762  766 3 1.789 -5.052 -0.962 4.226 -0.000 0.000
 761  759  760  762 4 180.000 43.932 2
 760  762  763  764 3 58.576 0.000 -58.576 -0.000 -0.000 0.000
 760  762  763  765 3 58.576 0.000 -58.576 -0.000 -0.000 0.000
 760  762  763  777 3 2.928800 -1.464400 0.209200 -1.673600 0.000000 0.000000
 760  762  766  767 3 -0.778 -2.335 0.000 3.113 -0.000 0.000
 760  762  766  768 3 -0.778 -2.335 0.000 3.113 -0.000 0.000
 760  762  766  769 3 -0.778 -2.335 0.000 3.113 -0.000 0.000
 761  760  762  763 3 30.334 -5.230 -25.104 -0.000 -0.000 0.000
 761  760  762  766 3 1.789 -5.052 -0.962 4.226 -0.000 0.000
 763  760  762  766 4 180.000 10.460 2
 762  763  777  775 3 2.928800 -1.464400 0.209200 -1.673600 0.000000 0.000000
 762  763  777  778 3 2.928800 -1.464400 0.209200 -1.673600 0.000000 0.000000
 762  763  777  781 3 2.928800 -1.464400 0.209200 -1.673600 0.000000 0.000000
 763  762  766  767 3 -0.778 -2.335 0.000 3.113 -0.000 0.000
 763  762  766  768 3 -0.778 -2.335 0.000 3.113 -0.000 0.000
 763  762  766  769 3 -0.778 -2.335 0.000 3.113 -0.000 0.000
 764  762  763  765 4 180.000 10.460 2
 766  762  763  764 3 58.576 0.000 -58.576 -0.000 -0.000 0.000
 766  762  763  765 3 58.576 0.000 -58.576 -0.000 -0.000 0.000
 766  762  763  777 3 2.928800 -1.464400 0.209200 -1.673600 0.000000 0.000000
 763  777  778  779 3 0.627600 1.882800 0.000000 -2.510400 0.000000 0.000000
 763  777  778  780 3 0.627600 1.882800 0.000000 -2.510400 0.000000 0.000000
 763  777  778  792 3 2.928800 -1.464400 0.209200 -1.673600 0.000000 0.000000
 763  777  781  782 3 0.627600 1.882800 0.000000 -2.510400 0.000000 0.000000
 763  777  781  783 3 0.627600 1.882800 0.000000 -2.510400 0.000000 0.000000
 763  777  781  784 3 0.627600 1.882800 0.000000 -2.510400 0.000000 0.000000
 764  763  777  775 3 0.627600 1.882800 0.000000 -2.510400 0.000000 0.000000
 764  763  777  778 3 0.627600 1.882800 0.000000 -2.510400 0.000000 0.000000
 764  763  777  781 3 0.627600 1.882800 0.000000 -2.510400 0.000000 0.000000
 765  763  777  775 3 0.627600 1.882800 0.000000 -2.510400 0.000000 0.000000
 765  763  777  778 3 0.627600 1.882800 0.000000 -2.510400 0.000000 0.000000
 765  763  777  781 3 0.627600 1.882800 0.000000 -2.510400 0.000000 0.000000
 774  775  777  763 3 2.874410 0.581580 2.092000 -5.547990 0.000000 0.000000
 776  775  777  763 3 2.874410 0.581580 2.092000 -5.547990 0.000000 0.000000
 770  771  774  775 3 0.414 1.243 0.000 -1.657 -0.000 0.000
 771  774  775  776 3 21.439 0.000 -21.439 -0.000 -0.000 0.000
 771  774  775  777 3 31.206 -9.768 -21.439 -0.000 -0.000 0.000
 772  771  774  775 3 0.414 1.243 0.000 -1.657 -0.000 0.000
 773  771  774  775 3 0.414 1.243 0.000 -1.657 -0.000 0.000
 774  775  777  778 3 -5.858 -6.694 12.552 -0.000 -0.000 0.000
 774  775  777  781 3 1.789 -5.052 -0.962 4.226 -0.000 0.000
 776  774  775  777 4 180.000 43.932 2
 775  777  778  779 3 58.576 0.000 -58.576 -0.000 -0.000 0.000
 775  777  778  780 3 58.576 0.000 -58.576 -0.000 -0.000 0.000
 775  777  778  792 3 2.928800 -1.464400 0.209200 -1.673600 0.000000 0.000000
 775  777  781  782 3 -0.778 -2.335 0.000 3.113 -0.000 0.000
 775  777  781  783 3 -0.778 -2.335 0.000 3.113 -0.000 0.000
 775  777  781  784 3 -0.778 -2.335 0.000 3.113 -0.000 0.000
 776  775  777  778 3 30.334 -5.230 -25.104 -0.000 -0.000 0.000
 776  775  777  781 3 1.789 -5.052 -0.962 4.226 -0.000 0.000
 778  775  777  781 4 180.000 10.460 2
 777  778  792  790 3 2.928800 -1.464400 0.209200 -1.673600 0.000000 0.000000
 777  778  792  793 3 2.928800 -1.464400 0.209200 -1.673600 0.000000 0.000000
 777  778  792  796 3 2.928800 -1.464400 0.209200 -1.673600 0.000000 0.000000
 778  777  781  782 3 -0.778 -2.335 0.000 3.113 -0.000 0.000
 778  777  781  783 3 -0.778 -2.335 0.000 3.113 -0.000 0.000
 778  777  781  784 3 -0.778 -2.335 0.000 3.113 -0.000 0.000
 779  777  778  780 4 180.000 10.460 2
 781  777  778  779 3 58.576 0.000 -58.576 -0.000 -0.000 0.000
 781  777  778  780 3 58.576 0.000 -58.576 -0.000 -0.000 0.000
 781  777  778  792 3 2.928800 -1.464400 0.209200 -1.673600 0.000000 0.000000
 778  792  793  794 3 0.627600 1.882800 0.000000 -2.510400 0.000000 0.000000
 778  792  793  795 3 0.627600 1.882800 0.000000 -2.510400 0.000000 0.000000
 778  792  793  807 3 2.928800 -1.464400 0.209200 -1.673600 0.000000 0.000000
 778  792  796  797 3 0.627600 1.882800 0.000000 -2.510400 0.000000 0.000000
 778  792  796  798 3 0.627600 1.882800 0.000000 -2.510400 0.000000 0.000000
 778  792  796  799 3 0.627600 1.882800 0.000000 -2.510400 0.000000 0.000000
 779  778  792  790 3 0.627600 1.882800 0.000000 -2.510400 0.000000 0.000000
 779  778  792  793 3 0.627600 1.882800 0.000000 -2.510400 0.000000 0.000000
 779  778  792  796 3 0.627600 1.882800 0.000000 -2.510400 0.000000 0.000000
 780  778  792  790 3 0.627600 1.882800 0.000000 -2.510400 0.000000 0.000000
 780  778  792  793 3 0.627600 1.882800 0.000000 -2.510400 0.000000 0.000000
 780  778  792  796 3 0.627600 1.882800 0.000000 -2.510400 0.000000 0.000000
 789  790  792  778 3 2.874410 0.581580 2.092000 -5.547990 0.000000 0.000000
 791  790  792  778 3 2.874410 0.581580 2.092000 -5.547990 0.000000 0.000000
 785  786  789  790 3 0.414 1.243 0.000 -1.657 -0.000 0.000
 786  789  790  791 3 21.439 0.000 -21.439 -0.000 -0.000 0.000
 786  789  790  792 3 31.206 -9.768 -21.439 -0.000 -0.000 0.000
 787  786  789  790 3 0.414 1.243 0.000 -1.657 -0.000 0.000
 788  786  789  790 3 0.414 1.243 0.000 -1.657 -0.000 0.000
 789  790  792  793 3 -5.858 -6.694 12.552 -0.000 -0.000 0.000
 789  790  792  796 3 1.789 -5.052 -0.962 4.226 -0.000 0.000
 791  789  790  792 4 180.000 43.932 2
 790  792  793  794 3 58.576 0.000 -58.576 -0.000 -0.000 0.000
 790  792  793  795 3 58.576 0.000 -58.576 -0.000 -0.000 0.000
 790  792  793  807 3 2.928800 -1.464400 0.209200 -1.673600 0.000000 0.000000
 790  792  796  797 3 -0.778 -2.335 0.000 3.113 -0.000 0.000
 790  792  796  798 3 -0.778 -2.335 0.000 3.113 -0.000 0.000
 790  792  796  799 3 -0.778 -2.335 0.000 3.113 -0.000 0.000
 791  790  792  793 3 30.334 -5.230 -25.104 -0.000 -0.000 0.000
 791  790  792  796 3 1.789 -5.052 -0.962 4.226 -0.000 0.000
 793  790  792  796 4 180.000 10.460 2
 792  793  807  805 3 2.928800 -1.464400 0.209200 -1.673600 0.000000 0.000000
 792  793  807  808 3 2.928800 -1.464400 0.209200 -1.673600 0.000000 0.000000
 792  793  807  811 3 2.928800 -1.464400 0.209200 -1.673600 0.000000 0.000000
 793  792  796  797 3 -0.778 -2.335 0.000 3.113 -0.000 0.000
 793  792  796  798 3 -0.778 -2.335 0.000 3.113 -0.000 0.000
 793  792  796  799 3 -0.778 -2.335 0.000 3.113 -0.000 0.000
 794  792  793  795 4 180.000 10.460 2
 796  792  793  794 3 58.576 0.000 -58.576 -0.000 -0.000 0.000
 796  792  793  795 3 58.576 0.000 -58.576 -0.000 -0.000 0.000
 796  792  793  807 3 2.928800 -1.464400 0.209200 -1.673600 0.000000 0.000000
 793  807  808  809 3 0.627600 1.882800 0.000000 -2.510400 0.000000 0.000000
 793  807  808  810 3 0.627600 1.882800 0.000000 -2.510400 0.000000 0.000000
 793  807  808  822 3 2.928800 -1.464400 0.209200 -1.673600 0.000000 0.000000
 793  807  811  812 3 0.627600 1.882800 0.000000 -2.510400 0.000000 0.000000
 793  807  811  813 3 0.627600 1.882800 0.000000 -2.510400 0.000000 0.000000
 793  807  811  814 3 0.627600 1.882800 0.000000 -2.510400 0.000000 0.000000
 794  793  807  805 3 0.627600 1.882800 0.000000 -2.510400 0.000000 0.000000
 794  793  807  808 3 0.627600 1.882800 0.000000 -2.510400 0.000000 0.000000
 794  793  807  811 3 0.627600 1.882800 0.000000 -2.510400 0.000000 0.000000
 795  793  807  805 3 0.627600 1.882800 0.000000 -2.510400 0.000000 0.000000
 795  793  807  808 3 0.627600 1.882800 0.000000 -2.510400 0.000000 0.000000
 795  793  807  811 3 0.627600 1.882800 0.000000 -2.510400 0.000000 0.000000
 804  805  807  793 3 2.874410 0.581580 2.092000 -5.547990 0.000000 0.000000
 806  805  807  793 3 2.874410 0.581580 2.092000 -5.547990 0.000000 0.000000
 800  801  804  805 3 0.414 1.243 0.000 -1.657 -0.000 0.000
 801  804  805  806 3 21.439 0.000 -21.439 -0.000 -0.000 0.000
 801  804  805  807 3 31.206 -9.768 -21.439 -0.000 -0.000 0.000
 802  801  804  805 3 0.414 1.243 0.000 -1.657 -0.000 0.000
 803  801  804  805 3 0.414 1.243 0.000 -1.657 -0.000 0.000
 804  805  807  808 3 -5.858 -6.694 12.552 -0.000 -0.000 0.000
 804  805  807  811 3 1.789 -5.052 -0.962 4.226 -0.000 0.000
 806  804  805  807 4 180.000 43.932 2
 805  807  808  809 3 58.576 0.000 -58.576 -0.000 -0.000 0.000
 805  807  808  810 3 58.576 0.000 -58.576 -0.000 -0.000 0.000
 805  807  808  822 3 2.928800 -1.464400 0.209200 -1.673600 0.000000 0.000000
 805  807  811  812 3 -0.778 -2.335 0.000 3.113 -0.000 0.000
 805  807  811  813 3 -0.778 -2.335 0.000 3.113 -0.000 0.000
 805  807  811  814 3 -0.778 -2.335 0.000 3.113 -0.000 0.000
 806  805  807  808 3 30.334 -5.230 -25.104 -0.000 -0.000 0.000
 806  805  807  811 3 1.789 -5.052 -0.962 4.226 -0.000 0.000
 808  805  807  811 4 180.000 10.460 2
 807  808  822  820 3 2.928800 -1.464400 0.209200 -1.673600 0.000000 0.000000
 807  808  822  823 3 2.928800 -1.464400 0.209200 -1.673600 0.000000 0.000000
 807  808  822  826 3 2.928800 -1.464400 0.209200 -1.673600 0.000000 0.000000
 808  807  811  812 3 -0.778 -2.335 0.000 3.113 -0.000 0.000
 808  807  811  813 3 -0.778 -2.335 0.000 3.113 -0.000 0.000
 808  807  811  814 3 -0.778 -2.335 0.000 3.113 -0.000 0.000
 809  807  808  810 4 180.000 10.460 2
 811  807  808  809 3 58.576 0.000 -58.576 -0.000 -0.000 0.000
 811  807  808  810 3 58.576 0.000 -58.576 -0.000 -0.000 0.000
 811  807  808  822 3 2.928800 -1.464400 0.209200 -1.673600 0.000000 0.000000
 808  822  823  824 3 0.627600 1.882800 0.000000 -2.510400 0.000000 0.000000
 808  822  823  825 3 0.627600 1.882800 0.000000 -2.510400 0.000000 0.000000
 808  822  823  837 3 2.928800 -1.464400 0.209200 -1.673600 0.000000 0.000000
 808  822  826  827 3 0.627600 1.882800 0.000000 -2.510400 0.000000 0.000000
 808  822  826  828 3 0.627600 1.882800 0.000000 -2.510400 0.000000 0.000000
 808  822  826  829 3 0.627600 1.882800 0.000000 -2.510400 0.000000 0.000000
 809  808  822  820 3 0.627600 1.882800 0.000000 -2.510400 0.000000 0.000000
 809  808  822  823 3 0.627600 1.882800 0.000000 -2.510400 0.000000 0.000000
 809  808  822  826 3 0.627600 1.882800 0.000000 -2.510400 0.000000 0.000000
 810  808  822  820 3 0.627600 1.882800 0.000000 -2.510400 0.000000 0.000000
 810  808  822  823 3 0.627600 1.882800 0.000000 -2.510400 0.000000 0.000000
 810  808  822  826 3 0.627600 1.882800 0.000000 -2.510400 0.000000 0.000000
 819  820  822  808 3 2.874410 0.581580 2.092000 -5.547990 0.000000 0.000000
 821  820  822  808 3 2.874410 0.581580 2.092000 -5.547990 0.000000 0.000000
 815  816  819  820 3 0.414 1.243 0.000 -1.657 -0.000 0.000
 816  819  820  821 3 21.439 0.000 -21.439 -0.000 -0.000 0.000
 816  819  820  822 3 31.206 -9.768 -21.439 -0.000 -0.000 0.000
 817  816  819  820 3 0.414 1.243 0.000 -1.657 -0.000 0.000
 818  816  819  820 3 0.414 1.243 0.000 -1.657 -0.000 0.000
 819  820  822  823 3 -5.858 -6.694 12.552 -0.000 -0.000 0.000
 819  820  822  826 3 1.789 -5.052 -0.962 4.226 -0.000 0.000
 821  819  820  822 4 180.000 43.932 2
 820  822  823  824 3 58.576 0.000 -58.576 -0.000 -0.000 0.000
 820  822  823  825 3 58.576 0.000 -58.576 -0.000 -0.000 0.000
 820  822  823  837 3 2.928800 -1.464400 0.209200 -1.673600 0.000000 0.000000
 820  822  826  827 3 -0.778 -2.335 0.000 3.113 -0.000 0.000
 820  822  826  828 3 -0.778 -2.335 0.000 3.113 -0.000 0.000
 820  822  826  829 3 -0.778 -2.335 0.000 3.113 -0.000 0.000
 821  820  822  823 3 30.334 -5.230 -25.104 -0.000 -0.000 0.000
 821  820  822  826 3 1.789 -5.052 -0.962 4.226 -0.000 0.000
 823  820  822  826 4 180.000 10.460 2
 822  823  837  835 3 2.928800 -1.464400 0.209200 -1.673600 0.000000 0.000000
 822  823  837  838 3 2.928800 -1.464400 0.209200 -1.673600 0.000000 0.000000
 822  823  837  841 3 2.928800 -1.464400 0.209200 -1.673600 0.000000 0.000000
 823  822  826  827 3 -0.778 -2.335 0.000 3.113 -0.000 0.000
 823  822  826  828 3 -0.778 -2.335 0.000 3.113 -0.000 0.000
 823  822  826  829 3 -0.778 -2.335 0.000 3.113 -0.000 0.000
 824  822  823  825 4 180.000 10.460 2
 826  822  823  824 3 58.576 0.000 -58.576 -0.000 -0.000 0.000
 826  822  823  825 3 58.576 0.000 -58.576 -0.000 -0.000 0.000
 826  822  823  837 3 2.928800 -1.464400 0.209200 -1.673600 0.000000 0.000000
 823  837  838  839 3 0.627600 1.882800 0.000000 -2.510400 0.000000 0.000000
 823  837  838  840 3 0.627600 1.882800 0.000000 -2.510400 0.000000 0.000000
 823  837  838  852 3 2.928800 -1.464400 0.209200 -1.673600 0.000000 0.000000
 823  837  841  842 3 0.627600 1.882800 0.000000 -2.510400 0.000000 0.000000
 823  837  841  843 3 0.627600 1.882800 0.000000 -2.510400 0.000000 0.000000
 823  837  841  844 3 0.627600 1.882800 0.000000 -2.510400 0.000000 0.000000
 824  823  837  835 3 0.627600 1.882800 0.000000 -2.510400 0.000000 0.000000
 824  823  837  838 3 0.627600 1.882800 0.000000 -2.510400 0.000000 0.000000
 824  823  837  841 3 0.627600 1.882800 0.000000 -2.510400 0.000000 0.000000
 825  823  837  835 3 0.627600 1.882800 0.000000 -2.510400 0.000000 0.000000
 825  823  837  838 3 0.627600 1.882800 0.000000 -2.510400 0.000000 0.000000
 825  823  837  841 3 0.627600 1.882800 0.000000 -2.510400 0.000000 0.000000
 834  835  837  823 3 2.874410 0.581580 2.092000 -5.547990 0.000000 0.000000
 836  835  837  823 3 2.874410 0.581580 2.092000 -5.547990 0.000000 0.000000
 830  831  834  835 3 0.414 1.243 0.000 -1.657 -0.000 0.000
 831  834  835  836 3 21.439 0.000 -21.439 -0.000 -0.000 0.000
 831  834  835  837 3 31.206 -9.768 -21.439 -0.000 -0.000 0.000
 832  831  834  835 3 0.414 1.243 0.000 -1.657 -0.000 0.000
 833  831  834  835 3 0.414 1.243 0.000 -1.657 -0.000 0.000
 834  835  837  838 3 -5.858 -6.694 12.552 -0.000 -0.000 0.000
 834  835  837  841 3 1.789 -5.052 -0.962 4.226 -0.000 0.000
 836  834  835  837 4 180.000 43.932 2
 835  837  838  839 3 58.576 0.000 -58.576 -0.000 -0.000 0.000
 835  837  838  840 3 58.576 0.000 -58.576 -0.000 -0.000 0.000
 835  837  838  852 3 2.928800 -1.464400 0.209200 -1.673600 0.000000 0.000000
 835  837  841  842 3 -0.778 -2.335 0.000 3.113 -0.000 0.000
 835  837  841  843 3 -0.778 -2.335 0.000 3.113 -0.000 0.000
 835  837  841  844 3 -0.778 -2.335 0.000 3.113 -0.000 0.000
 836  835  837  838 3 30.334 -5.230 -25.104 -0.000 -0.000 0.000
 836  835  837  841 3 1.789 -5.052 -0.962 4.226 -0.000 0.000
 838  835  837  841 4 180.000 10.460 2
 837  838  852  850 3 2.928800 -1.464400 0.209200 -1.673600 0.000000 0.000000
 837  838  852  853 3 2.928800 -1.464400 0.209200 -1.673600 0.000000 0.000000
 837  838  852  856 3 2.928800 -1.464400 0.209200 -1.673600 0.000000 0.000000
 838  837  841  842 3 -0.778 -2.335 0.000 3.113 -0.000 0.000
 838  837  841  843 3 -0.778 -2.335 0.000 3.113 -0.000 0.000
 838  837  841  844 3 -0.778 -2.335 0.000 3.113 -0.000 0.000
 839  837  838  840 4 180.000 10.460 2
 841  837  838  839 3 58.576 0.000 -58.576 -0.000 -0.000 0.000
 841  837  838  840 3 58.576 0.000 -58.576 -0.000 -0.000 0.000
 841  837  838  852 3 2.928800 -1.464400 0.209200 -1.673600 0.000000 0.000000
 838  852  853  854 3 0.627600 1.882800 0.000000 -2.510400 0.000000 0.000000
 838  852  853  855 3 0.627600 1.882800 0.000000 -2.510400 0.000000 0.000000
 838  852  853  867 3 2.928800 -1.464400 0.209200 -1.673600 0.000000 0.000000
 838  852  856  857 3 0.627600 1.882800 0.000000 -2.510400 0.000000 0.000000
 838  852  856  858 3 0.627600 1.882800 0.000000 -2.510400 0.000000 0.000000
 838  852  856  859 3 0.627600 1.882800 0.000000 -2.510400 0.000000 0.000000
 839  838  852  850 3 0.627600 1.882800 0.000000 -2.510400 0.000000 0.000000
 839  838  852  853 3 0.627600 1.882800 0.000000 -2.510400 0.000000 0.000000
 839  838  852  856 3 0.627600 1.882800 0.000000 -2.510400 0.000000 0.000000
 840  838  852  850 3 0.627600 1.882800 0.000000 -2.510400 0.000000 0.000000
 840  838  852  853 3 0.627600 1.882800 0.000000 -2.510400 0.000000 0.000000
 840  838  852  856 3 0.627600 1.882800 0.000000 -2.510400 0.000000 0.000000
 849  850  852  838 3 2.874410 0.581580 2.092000 -5.547990 0.000000 0.000000
 851  850  852  838 3 2.874410 0.581580 2.092000 -5.547990 0.000000 0.000000
 845  846  849  850 3 0.414 1.243 0.000 -1.657 -0.000 0.000
 846  849  850  851 3 21.439 0.000 -21.439 -0.000 -0.000 0.000
 846  849  850  852 3 31.206 -9.768 -21.439 -0.000 -0.000 0.000
 847  846  849  850 3 0.414 1.243 0.000 -1.657 -0.000 0.000
 848  846  849  850 3 0.414 1.243 0.000 -1.657 -0.000 0.000
 849  850  852  853 3 -5.858 -6.694 12.552 -0.000 -0.000 0.000
 849  850  852  856 3 1.789 -5.052 -0.962 4.226 -0.000 0.000
 851  849  850  852 4 180.000 43.932 2
 850  852  853  854 3 58.576 0.000 -58.576 -0.000 -0.000 0.000
 850  852  853  855 3 58.576 0.000 -58.576 -0.000 -0.000 0.000
 850  852  853  867 3 2.928800 -1.464400 0.209200 -1.673600 0.000000 0.000000
 850  852  856  857 3 -0.778 -2.335 0.000 3.113 -0.000 0.000
 850  852  856  858 3 -0.778 -2.335 0.000 3.113 -0.000 0.000
 850  852  856  859 3 -0.778 -2.335 0.000 3.113 -0.000 0.000
 851  850  852  853 3 30.334 -5.230 -25.104 -0.000 -0.000 0.000
 851  850  852  856 3 1.789 -5.052 -0.962 4.226 -0.000 0.000
 853  850  852  856 4 180.000 10.460 2
 852  853  867  865 3 2.928800 -1.464400 0.209200 -1.673600 0.000000 0.000000
 852  853  867  868 3 2.928800 -1.464400 0.209200 -1.673600 0.000000 0.000000
 852  853  867  871 3 2.928800 -1.464400 0.209200 -1.673600 0.000000 0.000000
 853  852  856  857 3 -0.778 -2.335 0.000 3.113 -0.000 0.000
 853  852  856  858 3 -0.778 -2.335 0.000 3.113 -0.000 0.000
 853  852  856  859 3 -0.778 -2.335 0.000 3.113 -0.000 0.000
 854  852  853  855 4 180.000 10.460 2
 856  852  853  854 3 58.576 0.000 -58.576 -0.000 -0.000 0.000
 856  852  853  855 3 58.576 0.000 -58.576 -0.000 -0.000 0.000
 856  852  853  867 3 2.928800 -1.464400 0.209200 -1.673600 0.000000 0.000000
 853  867  868  869 3 0.627600 1.882800 0.000000 -2.510400 0.000000 0.000000
 853  867  868  870 3 0.627600 1.882800 0.000000 -2.510400 0.000000 0.000000
 853  867  868  879 3 2.928800 -1.464400 0.209200 -1.673600 0.000000 0.000000
 853  867  871  872 3 0.627600 1.882800 0.000000 -2.510400 0.000000 0.000000
 853  867  871  873 3 0.627600 1.882800 0.000000 -2.510400 0.000000 0.000000
 853  867  871  874 3 0.627600 1.882800 0.000000 -2.510400 0.000000 0.000000
 854  853  867  865 3 0.627600 1.882800 0.000000 -2.510400 0.000000 0.000000
 854  853  867  868 3 0.627600 1.882800 0.000000 -2.510400 0.000000 0.000000
 854  853  867  871 3 0.627600 1.882800 0.000000 -2.510400 0.000000 0.000000
 855  853  867  865 3 0.627600 1.882800 0.000000 -2.510400 0.000000 0.000000
 855  853  867  868 3 0.627600 1.882800 0.000000 -2.510400 0.000000 0.000000
 855  853  867  871 3 0.627600 1.882800 0.000000 -2.510400 0.000000 0.000000
 864  865  867  853 3 2.874410 0.581580 2.092000 -5.547990 0.000000 0.000000
 866  865  867  853 3 2.874410 0.581580 2.092000 -5.547990 0.000000 0.000000
 860  861  864  865 3 0.414 1.243 0.000 -1.657 -0.000 0.000
 861  864  865  866 3 21.439 0.000 -21.439 -0.000 -0.000 0.000
 861  864  865  867 3 31.206 -9.768 -21.439 -0.000 -0.000 0.000
 862  861  864  865 3 0.414 1.243 0.000 -1.657 -0.000 0.000
 863  861  864  865 3 0.414 1.243 0.000 -1.657 -0.000 0.000
 864  865  867  868 3 -5.858 -6.694 12.552 -0.000 -0.000 0.000
 864  865  867  871 3 1.789 -5.052 -0.962 4.226 -0.000 0.000
 866  864  865  867 4 180.000 43.932 2
 865  867  868  869 3 58.576 0.000 -58.576 -0.000 -0.000 0.000
 865  867  868  870 3 58.576 0.000 -58.576 -0.000 -0.000 0.000
 865  867  868  879 3 2.928800 -1.464400 0.209200 -1.673600 0.000000 0.000000
 865  867  871  872 3 -0.778 -2.335 0.000 3.113 -0.000 0.000
 865  867  871  873 3 -0.778 -2.335 0.000 3.113 -0.000 0.000
 865  867  871  874 3 -0.778 -2.335 0.000 3.113 -0.000 0.000
 866  865  867  868 3 30.334 -5.230 -25.104 -0.000 -0.000 0.000
 866  865  867  871 3 1.789 -5.052 -0.962 4.226 -0.000 0.000
 868  865  867  871 4 180.000 10.460 2
 867  868  879  876 3 2.928800 -1.464400 0.209200 -1.673600 0.000000 0.000000
 867  868  879  880 3 2.928800 -1.464400 0.209200 -1.673600 0.000000 0.000000
 867  868  879  883 3 2.928800 -1.464400 0.209200 -1.673600 0.000000 0.000000
 868  867  871  872 3 -0.778 -2.335 0.000 3.113 -0.000 0.000
 868  867  871  873 3 -0.778 -2.335 0.000 3.113 -0.000 0.000
 868  867  871  874 3 -0.778 -2.335 0.000 3.113 -0.000 0.000
 869  867  868  870 4 180.000 10.460 2
 871  867  868  869 3 58.576 0.000 -58.576 -0.000 -0.000 0.000
 871  867  868  870 3 58.576 0.000 -58.576 -0.000 -0.000 0.000
 871  867  868  879 3 2.928800 -1.464400 0.209200 -1.673600 0.000000 0.000000
 868  879  880  881 3 0.627600 1.882800 0.000000 -2.510400 0.000000 0.000000
 868  879  880  882 3 0.627600 1.882800 0.000000 -2.510400 0.000000 0.000000
 868  879  880  915 3 2.928800 -1.464400 0.209200 -1.673600 0.000000 0.000000
 868  879  883  884 3 2.874410 0.581580 2.092000 -5.547990 0.000000 0.000000
 868  879  883  885 3 2.874410 0.581580 2.092000 -5.547990 0.000000 0.000000
 869  868  879  876 3 0.627600 1.882800 0.000000 -2.510400 0.000000 0.000000
 869  868  879  880 3 0.627600 1.882800 0.000000 -2.510400 0.000000 0.000000
 869  868  879  883 3 0.627600 1.882800 0.000000 -2.510400 0.000000 0.000000
 870  868  879  876 3 0.627600 1.882800 0.000000 -2.510400 0.000000 0.000000
 870  868  879  880 3 0.627600 1.882800 0.000000 -2.510400 0.000000 0.000000
 870  868  879  883 3 0.627600 1.882800 0.000000 -2.510400 0.000000 0.000000
 875  876  879  868 3 0.627600 1.882800 0.000000 -2.510400 0.000000 0.000000
 877  876  879  868 3 0.627600 1.882800 0.000000 -2.510400 0.000000 0.000000
 878  876  879  868 3 0.627600 1.882800 0.000000 -2.510400 0.000000 0.000000
 875  876  879  880 3 -0.778 -2.335 0.000 3.113 -0.000 0.000
 875  876  879  883 3 -0.778 -2.335 0.000 3.113 -0.000 0.000
 876  879  880  881 3 58.576 0.000 -58.576 -0.000 -0.000 0.000
 876  879  880  882 3 58.576 0.000 -58.576 -0.000 -0.000 0.000
 876  879  880  915 3 2.928800 -1.464400 0.209200 -1.673600 0.000000 0.000000
 876  879  883  884 3 1.789 -5.052 -0.962 4.226 -0.000 0.000
 876  879  883  885 3 1.789 -5.052 -0.962 4.226 -0.000 0.000
 877  876  879  880 3 -0.778 -2.335 0.000 3.113 -0.000 0.000
 877  876  879  883 3 -0.778 -2.335 0.000 3.113 -0.000 0.000
 878  876  879  880 3 -0.778 -2.335 0.000 3.113 -0.000 0.000
 878  876  879  883 3 -0.778 -2.335 0.000 3.113 -0.000 0.000
 880  876  879  883 4 180.000 10.460 2
 879  880  915  912 3 2.928800 -1.464400 0.209200 -1.673600 0.000000 0.000000
 879  880  915  916 3 2.928800 -1.464400 0.209200 -1.673600 0.000000 0.000000
 879  880  915  919 3 2.928800 -1.464400 0.209200 -1.673600 0.000000 0.000000
 879  883  885  886 3 31.206 -9.768 -21.439 -0.000 -0.000 0.000
 880  879  883  884 3 30.334 -5.230 -25.104 -0.000 -0.000 0.000
 880  879  883  885 3 -5.858 -6.694 12.552 -0.000 -0.000 0.000
 881  879  880  882 4 180.000 10.460 2
 883  879  880  881 3 58.576 0.000 -58.576 -0.000 -0.000 0.000
 883  879  880  882 3 58.576 0.000 -58.576 -0.000 -0.000 0.000
 883  879  880  915 3 2.928800 -1.464400 0.209200 -1.673600 0.000000 0.000000
 884  879  883  885 4 180.000 43.932 2
 880  915  916  917 3 0.627600 1.882800 0.000000 -2.510400 0.000000 0.000000
 880  915  916  918 3 0.627600 1.882800 0.000000 -2.510400 0.000000 0.000000
 880  915  916  981 3 2.928800 -1.464400 0.209200 -1.673600 0.000000 0.000000
 880  915  919  920 3 2.874410 0.581580 2.092000 -5.547990 0.000000 0.000000
 880  915  919  921 3 2.874410 0.581580 2.092000 -5.547990 0.000000 0.000000
 881  880  915  912 3 0.627600 1.882800 0.000000 -2.510400 0.000000 0.000000
 881  880  915  916 3 0.627600 1.882800 0.000000 -2.510400 0.000000 0.000000
 881  880  915  919 3 0.627600 1.882800 0.000000 -2.510400 0.000000 0.000000
 882  880  915  912 3 0.627600 1.882800 0.000000 -2.510400 0.000000 0.000000
 882  880  915  916 3 0.627600 1.882800 0.000000 -2.510400 0.000000 0.000000
 882  880  915  919 3 0.627600 1.882800 0.000000 -2.510400 0.000000 0.000000
 911  912  915  880 3 0.627600 1.882800 0.000000 -2.510400 0.000000 0.000000
 913  912  915  880 3 0.627600 1.882800 0.000000 -2.510400 0.000000 0.000000
 914  912  915  880 3 0.627600 1.882800 0.000000 -2.510400 0.000000 0.000000
 883  885  886  887 3 0.414 1.243 0.000 -1.657 -0.000 0.000
 883  885  886  888 3 0.414 1.243 0.000 -1.657 -0.000 0.000
 883  885  886  889 3 -2.197 5.201 0.527 -3.531 -0.000 0.000
 884  883  885  886 3 21.439 0.000 -21.439 -0.000 -0.000 0.000
 885  886  889  890 3 0.979 2.937 0.000 -3.916 -0.000 0.000
 885  886  889  891 3 2.874 0.582 2.092 -5.548 -0.000 0.000
 885  886  889  898 3 2.874 0.582 2.092 -5.548 -0.000 0.000
 886  889  891  892 3 0.628 1.883 0.000 -2.510 -0.000 0.000
 886  889  891  893 3 0.628 1.883 0.000 -2.510 -0.000 0.000
 886  889  891  894 3 2.301 -1.464 0.837 -1.674 -0.000 0.000
 886  889  898  899 3 0.628 1.883 0.000 -2.510 -0.000 0.000
 886  889  898  900 3 0.628 1.883 0.000 -2.510 -0.000 0.000
 886  889  898  901 3 2.301 -1.464 0.837 -1.674 -0.000 0.000
 887  886  889  890 3 0.628 1.883 0.000 -2.510 -0.000 0.000
 887  886  889  891 3 0.628 1.883 0.000 -2.510 -0.000 0.000
 887  886  889  898 3 0.628 1.883 0.000 -2.510 -0.000 0.000
 888  886  889  890 3 0.628 1.883 0.000 -2.510 -0.000 0.000
 888  886  889  891 3 0.628 1.883 0.000 -2.510 -0.000 0.000
 888  886  889  898 3 0.628 1.883 0.000 -2.510 -0.000 0.000
 889  891  894  895 3 0.628 1.883 0.000 -2.510 -0.000 0.000
 889  891  894  896 3 0.628 1.883 0.000 -2.510 -0.000 0.000
 889  891  894  897 3 0.628 1.883 0.000 -2.510 -0.000 0.000
 889  898  901  902 3 0.628 1.883 0.000 -2.510 -0.000 0.000
 889  898  901  903 3 0.628 1.883 0.000 -2.510 -0.000 0.000
 889  898  901  904 3 2.301 -1.464 0.837 -1.674 -0.000 0.000
 890  889  891  892 3 0.628 1.883 0.000 -2.510 -0.000 0.000
 890  889  891  893 3 0.628 1.883 0.000 -2.510 -0.000 0.000
 890  889  891  894 3 0.628 1.883 0.000 -2.510 -0.000 0.000
 890  889  898  899 3 0.628 1.883 0.000 -2.510 -0.000 0.000
 890  889  898  900 3 0.628 1.883 0.000 -2.510 -0.000 0.000
 890  889  898  901 3 0.628 1.883 0.000 -2.510 -0.000 0.000
 891  889  898  899 3 0.628 1.883 0.000 -2.510 -0.000 0.000
 891  889  898  900 3 0.628 1.883 0.000 -2.510 -0.000 0.000
 891  889  898  901 3 2.301 -1.464 0.837 -1.674 -0.000 0.000
 898  889  891  892 3 0.628 1.883 0.000 -2.510 -0.000 0.000
 898  889  891  893 3 0.628 1.883 0.000 -2.510 -0.000 0.000
 898  889  891  894 3 2.301 -1.464 0.837 -1.674 -0.000 0.000
 892  891  894  895 3 0.628 1.883 0.000 -2.510 -0.000 0.000
 892  891  894  896 3 0.628 1.883 0.000 -2.510 -0.000 0.000
 892  891  894  897 3 0.628 1.883 0.000 -2.510 -0.000 0.000
 893  891  894  895 3 0.628 1.883 0.000 -2.510 -0.000 0.000
 893  891  894  896 3 0.628 1.883 0.000 -2.510 -0.000 0.000
 893  891  894  897 3 0.628 1.883 0.000 -2.510 -0.000 0.000
 898  901  904  905 3 0.628 1.883 0.000 -2.510 -0.000 0.000
 898  901  904  906 3 0.628 1.883 0.000 -2.510 -0.000 0.000
 898  901  904  907 3 2.301 -1.464 0.837 -1.674 -0.000 0.000
 899  898  901  902 3 0.628 1.883 0.000 -2.510 -0.000 0.000
 899  898  901  903 3 0.628 1.883 0.000 -2.510 -0.000 0.000
 899  898  901  904 3 0.628 1.883 0.000 -2.510 -0.000 0.000
 900  898  901  902 3 0.628 1.883 0.000 -2.510 -0.000 0.000
 900  898  901  903 3 0.628 1.883 0.000 -2.510 -0.000 0.000
 900  898  901  904 3 0.628 1.883 0.000 -2.510 -0.000 0.000
 901  904  907  908 3 0.628 1.883 0.000 -2.510 -0.000 0.000
 901  904  907  909 3 0.628 1.883 0.000 -2.510 -0.000 0.000
 901  904  907  910 3 0.628 1.883 0.000 -2.510 -0.000 0.000
 902  901  904  905 3 0.628 1.883 0.000 -2.510 -0.000 0.000
 902  901  904  906 3 0.628 1.883 0.000 -2.510 -0.000 0.000
 902  901  904  907 3 0.628 1.883 0.000 -2.510 -0.000 0.000
 903  901  904  905 3 0.628 1.883 0.000 -2.510 -0.000 0.000
 903  901  904  906 3 0.628 1.883 0.000 -2.510 -0.000 0.000
 903  901  904  907 3 0.628 1.883 0.000 -2.510 -0.000 0.000
 905  904  907  908 3 0.628 1.883 0.000 -2.510 -0.000 0.000
 905  904  907  909 3 0.628 1.883 0.000 -2.510 -0.000 0.000
 905  904  907  910 3 0.628 1.883 0.000 -2.510 -0.000 0.000
 906  904  907  908 3 0.628 1.883 0.000 -2.510 -0.000 0.000
 906  904  907  909 3 0.628 1.883 0.000 -2.510 -0.000 0.000
 906  904  907  910 3 0.628 1.883 0.000 -2.510 -0.000 0.000
 911  912  915  916 3 -0.778 -2.335 0.000 3.113 -0.000 0.000
 911  912  915  919 3 -0.778 -2.335 0.000 3.113 -0.000 0.000
 912  915  916  917 3 58.576 0.000 -58.576 -0.000 -0.000 0.000
 912  915  916  918 3 58.576 0.000 -58.576 -0.000 -0.000 0.000
 912  915  916  981 3 2.928800 -1.464400 0.209200 -1.673600 0.000000 0.000000
 912  915  919  920 3 1.789 -5.052 -0.962 4.226 -0.000 0.000
 912  915  919  921 3 1.789 -5.052 -0.962 4.226 -0.000 0.000
 913  912  915  916 3 -0.778 -2.335 0.000 3.113 -0.000 0.000
 913  912  915  919 3 -0.778 -2.335 0.000 3.113 -0.000 0.000
 914  912  915  916 3 -0.778 -2.335 0.000 3.113 -0.000 0.000
 914  912  915  919 3 -0.778 -2.335 0.000 3.113 -0.000 0.000
 916  912  915  919 4 180.000 10.460 2
 915  916  981  978 3 2.928800 -1.464400 0.209200 -1.673600 0.000000 0.000000
 915  916  981  982 3 2.928800 -1.464400 0.209200 -1.673600 0.000000 0.000000
 915  916  981  985 3 2.928800 -1.464400 0.209200 -1.673600 0.000000 0.000000
 915  919  921  922 3 31.206 -9.768 -21.439 -0.000 -0.000 0.000
 916  915  919  920 3 30.334 -5.230 -25.104 -0.000 -0.000 0.000
 916  915  919  921 3 -5.858 -6.694 12.552 -0.000 -0.000 0.000
 917  915  916  918 4 180.000 10.460 2
 919  915  916  917 3 58.576 0.000 -58.576 -0.000 -0.000 0.000
 919  915  916  918 3 58.576 0.000 -58.576 -0.000 -0.000 0.000
 919  915  916  981 3 2.928800 -1.464400 0.209200 -1.673600 0.000000 0.000000
 920  915  919  921 4 180.000 43.932 2
 916  981  982  983 3 0.627600 1.882800 0.000000 -2.510400 0.000000 0.000000
 916  981  982  984 3 0.627600 1.882800 0.000000 -2.510400 0.000000 0.000000
 916  981  982 1047 3 2.928800 -1.464400 0.209200 -1.673600 0.000000 0.000000
 916  981  985  986 3 2.874410 0.581580 2.092000 -5.547990 0.000000 0.000000
 916  981  985  987 3 2.874410 0.581580 2.092000 -5.547990 0.000000 0.000000
 917  916  981  978 3 0.627600 1.882800 0.000000 -2.510400 0.000000 0.000000
 917  916  981  982 3 0.627600 1.882800 0.000000 -2.510400 0.000000 0.000000
 917  916  981  985 3 0.627600 1.882800 0.000000 -2.510400 0.000000 0.000000
 918  916  981  978 3 0.627600 1.882800 0.000000 -2.510400 0.000000 0.000000
 918  916  981  982 3 0.627600 1.882800 0.000000 -2.510400 0.000000 0.000000
 918  916  981  985 3 0.627600 1.882800 0.000000 -2.510400 0.000000 0.000000
 977  978  981  916 3 0.627600 1.882800 0.000000 -2.510400 0.000000 0.000000
 979  978  981  916 3 0.627600 1.882800 0.000000 -2.510400 0.000000 0.000000
 980  978  981  916 3 0.627600 1.882800 0.000000 -2.510400 0.000000 0.000000
 919  921  922  923 3 0.414 1.243 0.000 -1.657 -0.000 0.000
 919  921  922  924 3 0.414 1.243 0.000 -1.657 -0.000 0.000
 919  921  922  925 3 -2.197 5.201 0.527 -3.531 -0.000 0.000
 920  919  921  922 3 21.439 0.000 -21.439 -0.000 -0.000 0.000
 921  922  925  926 3 0.979 2.937 0.000 -3.916 -0.000 0.000
 921  922  925  927 3 0.979 2.937 0.000 -3.916 -0.000 0.000
 921  922  925  928 3 2.874 0.582 2.092 -5.548 -0.000 0.000
 922  925  928  929 3 0.628 1.883 0.000 -2.510 -0.000 0.000
 922  925  928  930 3 0.628 1.883 0.000 -2.510 -0.000 0.000
 922  925  928  931 3 2.301 -1.464 0.837 -1.674 -0.000 0.000
 923  922  925  926 3 0.628 1.883 0.000 -2.510 -0.000 0.000
 923  922  925  927 3 0.628 1.883 0.000 -2.510 -0.000 0.000
 923  922  925  928 3 0.628 1.883 0.000 -2.510 -0.000 0.000
 924  922  925  926 3 0.628 1.883 0.000 -2.510 -0.000 0.000
 924  922  925  927 3 0.628 1.883 0.000 -2.510 -0.000 0.000
 924  922  925  928 3 0.628 1.883 0.000 -2.510 -0.000 0.000
 925  928  931  932 3 0.628 1.883 0.000 -2.510 -0.000 0.000
 925  928  931  933 3 0.628 1.883 0.000 -2.510 -0.000 0.000
 925  928  931  934 3 2.301 -1.464 0.837 -1.674 -0.000 0.000
 926  925  928  929 3 0.628 1.883 0.000 -2.510 -0.000 0.000
 926  925  928  930 3 0.628 1.883 0.000 -2.510 -0.000 0.000
 926  925  928  931 3 0.628 1.883 0.000 -2.510 -0.000 0.000
 927  925  928  929 3 0.628 1.883 0.000 -2.510 -0.000 0.000
 927  925  928  930 3 0.628 1.883 0.000 -2.510 -0.000 0.000
 927  925  928  931 3 0.628 1.883 0.000 -2.510 -0.000 0.000
 928  931  934  935 3 0.628 1.883 0.000 -2.510 -0.000 0.000
 928  931  934  936 3 0.628 1.883 0.000 -2.510 -0.000 0.000
 928  931  934  937 3 2.301 -1.464 0.837 -1.674 -0.000 0.000
 929  928  931  932 3 0.628 1.883 0.000 -2.510 -0.000 0.000
 929  928  931  933 3 0.628 1.883 0.000 -2.510 -0.000 0.000
 929  928  931  934 3 0.628 1.883 0.000 -2.510 -0.000 0.000
 930  928  931  932 3 0.628 1.883 0.000 -2.510 -0.000 0.000
 930  928  931  933 3 0.628 1.883 0.000 -2.510 -0.000 0.000
 930  928  931  934 3 0.628 1.883 0.000 -2.510 -0.000 0.000
 931  934  937  938 3 0.628 1.883 0.000 -2.510 -0.000 0.000
 931  934  937  939 3 0.628 1.883 0.000 -2.510 -0.000 0.000
 931  934  937  940 3 2.301 -1.464 0.837 -1.674 -0.000 0.000
 932  931  934  935 3 0.628 1.883 0.000 -2.510 -0.000 0.000
 932  931  934  936 3 0.628 1.883 0.000 -2.510 -0.000 0.000
 932  931  934  937 3 0.628 1.883 0.000 -2.510 -0.000 0.000
 933  931  934  935 3 0.628 1.883 0.000 -2.510 -0.000 0.000
 933  931  934  936 3 0.628 1.883 0.000 -2.510 -0.000 0.000
 933  931  934  937 3 0.628 1.883 0.000 -2.510 -0.000 0.000
 934  937  940  941 3 0.628 1.883 0.000 -2.510 -0.000 0.000
 934  937  940  942 3 0.628 1.883 0.000 -2.510 -0.000 0.000
 934  937  940  943 3 2.301 -1.464 0.837 -1.674 -0.000 0.000
 935  934  937  938 3 0.628 1.883 0.000 -2.510 -0.000 0.000
 935  934  937  939 3 0.628 1.883 0.000 -2.510 -0.000 0.000
 935  934  937  940 3 0.628 1.883 0.000 -2.510 -0.000 0.000
 936  934  937  938 3 0.628 1.883 0.000 -2.510 -0.000 0.000
 936  934  937  939 3 0.628 1.883 0.000 -2.510 -0.000 0.000
 936  934  937  940 3 0.628 1.883 0.000 -2.510 -0.000 0.000
 937  940  943  944 3 0.628 1.883 0.000 -2.510 -0.000 0.000
 937  940  943  945 3 0.628 1.883 0.000 -2.510 -0.000 0.000
 937  940  943  946 3 2.301 -1.464 0.837 -1.674 -0.000 0.000
 938  937  940  941 3 0.628 1.883 0.000 -2.510 -0.000 0.000
 938  937  940  942 3 0.628 1.883 0.000 -2.510 -0.000 0.000
 938  937  940  943 3 0.628 1.883 0.000 -2.510 -0.000 0.000
 939  937  940  941 3 0.628 1.883 0.000 -2.510 -0.000 0.000
 939  937  940  942 3 0.628 1.883 0.000 -2.510 -0.000 0.000
 939  937  940  943 3 0.628 1.883 0.000 -2.510 -0.000 0.000
 940  943  946  947 3 0.628 1.883 0.000 -2.510 -0.000 0.000
 940  943  946  948 3 0.628 1.883 0.000 -2.510 -0.000 0.000
 940  943  946  949 3 2.301 -1.464 0.837 -1.674 -0.000 0.000
 941  940  943  944 3 0.628 1.883 0.000 -2.510 -0.000 0.000
 941  940  943  945 3 0.628 1.883 0.000 -2.510 -0.000 0.000
 941  940  943  946 3 0.628 1.883 0.000 -2.510 -0.000 0.000
 942  940  943  944 3 0.628 1.883 0.000 -2.510 -0.000 0.000
 942  940  943  945 3 0.628 1.883 0.000 -2.510 -0.000 0.000
 942  940  943  946 3 0.628 1.883 0.000 -2.510 -0.000 0.000
 943  946  949  950 3 0.628 1.883 0.000 -2.510 -0.000 0.000
 943  946  949  951 3 0.628 1.883 0.000 -2.510 -0.000 0.000
 943  946  949  952 3 2.301 -1.464 0.837 -1.674 -0.000 0.000
 944  943  946  947 3 0.628 1.883 0.000 -2.510 -0.000 0.000
 944  943  946  948 3 0.628 1.883 0.000 -2.510 -0.000 0.000
 944  943  946  949 3 0.628 1.883 0.000 -2.510 -0.000 0.000
 945  943  946  947 3 0.628 1.883 0.000 -2.510 -0.000 0.000
 945  943  946  948 3 0.628 1.883 0.000 -2.510 -0.000 0.000
 945  943  946  949 3 0.628 1.883 0.000 -2.510 -0.000 0.000
 946  949  952  953 3 0.628 1.883 0.000 -2.510 -0.000 0.000
 946  949  952  954 3 0.628 1.883 0.000 -2.510 -0.000 0.000
 946  949  952  955 3 2.301 -1.464 0.837 -1.674 -0.000 0.000
 947  946  949  950 3 0.628 1.883 0.000 -2.510 -0.000 0.000
 947  946  949  951 3 0.628 1.883 0.000 -2.510 -0.000 0.000
 947  946  949  952 3 0.628 1.883 0.000 -2.510 -0.000 0.000
 948  946  949  950 3 0.628 1.883 0.000 -2.510 -0.000 0.000
 948  946  949  951 3 0.628 1.883 0.000 -2.510 -0.000 0.000
 948  946  949  952 3 0.628 1.883 0.000 -2.510 -0.000 0.000
 949  952  955  956 3 0.628 1.883 0.000 -2.510 -0.000 0.000
 949  952  955  957 3 0.628 1.883 0.000 -2.510 -0.000 0.000
 949  952  955  958 3 2.301 -1.464 0.837 -1.674 -0.000 0.000
 950  949  952  953 3 0.628 1.883 0.000 -2.510 -0.000 0.000
 950  949  952  954 3 0.628 1.883 0.000 -2.510 -0.000 0.000
 950  949  952  955 3 0.628 1.883 0.000 -2.510 -0.000 0.000
 951  949  952  953 3 0.628 1.883 0.000 -2.510 -0.000 0.000
 951  949  952  954 3 0.628 1.883 0.000 -2.510 -0.000 0.000
 951  949  952  955 3 0.628 1.883 0.000 -2.510 -0.000 0.000
 952  955  958  959 3 0.628 1.883 0.000 -2.510 -0.000 0.000
 952  955  958  960 3 0.628 1.883 0.000 -2.510 -0.000 0.000
 952  955  958  961 3 2.301 -1.464 0.837 -1.674 -0.000 0.000
 953  952  955  956 3 0.628 1.883 0.000 -2.510 -0.000 0.000
 953  952  955  957 3 0.628 1.883 0.000 -2.510 -0.000 0.000
 953  952  955  958 3 0.628 1.883 0.000 -2.510 -0.000 0.000
 954  952  955  956 3 0.628 1.883 0.000 -2.510 -0.000 0.000
 954  952  955  957 3 0.628 1.883 0.000 -2.510 -0.000 0.000
 954  952  955  958 3 0.628 1.883 0.000 -2.510 -0.000 0.000
 955  958  961  962 3 0.628 1.883 0.000 -2.510 -0.000 0.000
 955  958  961  963 3 0.628 1.883 0.000 -2.510 -0.000 0.000
 955  958  961  964 3 2.301 -1.464 0.837 -1.674 -0.000 0.000
 956  955  958  959 3 0.628 1.883 0.000 -2.510 -0.000 0.000
 956  955  958  960 3 0.628 1.883 0.000 -2.510 -0.000 0.000
 956  955  958  961 3 0.628 1.883 0.000 -2.510 -0.000 0.000
 957  955  958  959 3 0.628 1.883 0.000 -2.510 -0.000 0.000
 957  955  958  960 3 0.628 1.883 0.000 -2.510 -0.000 0.000
 957  955  958  961 3 0.628 1.883 0.000 -2.510 -0.000 0.000
 958  961  964  965 3 0.628 1.883 0.000 -2.510 -0.000 0.000
 958  961  964  966 3 0.628 1.883 0.000 -2.510 -0.000 0.000
 958  961  964  967 3 2.301 -1.464 0.837 -1.674 -0.000 0.000
 959  958  961  962 3 0.628 1.883 0.000 -2.510 -0.000 0.000
 959  958  961  963 3 0.628 1.883 0.000 -2.510 -0.000 0.000
 959  958  961  964 3 0.628 1.883 0.000 -2.510 -0.000 0.000
 960  958  961  962 3 0.628 1.883 0.000 -2.510 -0.000 0.000
 960  958  961  963 3 0.628 1.883 0.000 -2.510 -0.000 0.000
 960  958  961  964 3 0.628 1.883 0.000 -2.510 -0.000 0.000
 961  964  967  968 3 0.628 1.883 0.000 -2.510 -0.000 0.000
 961  964  967  969 3 0.628 1.883 0.000 -2.510 -0.000 0.000
 961  964  967  970 3 2.301 -1.464 0.837 -1.674 -0.000 0.000
 962  961  964  965 3 0.628 1.883 0.000 -2.510 -0.000 0.000
 962  961  964  966 3 0.628 1.883 0.000 -2.510 -0.000 0.000
 962  961  964  967 3 0.628 1.883 0.000 -2.510 -0.000 0.000
 963  961  964  965 3 0.628 1.883 0.000 -2.510 -0.000 0.000
 963  961  964  966 3 0.628 1.883 0.000 -2.510 -0.000 0.000
 963  961  964  967 3 0.628 1.883 0.000 -2.510 -0.000 0.000
 964  967  970  971 3 0.628 1.883 0.000 -2.510 -0.000 0.000
 964  967  970  972 3 0.628 1.883 0.000 -2.510 -0.000 0.000
 964  967  970  973 3 2.301 -1.464 0.837 -1.674 -0.000 0.000
 965  964  967  968 3 0.628 1.883 0.000 -2.510 -0.000 0.000
 965  964  967  969 3 0.628 1.883 0.000 -2.510 -0.000 0.000
 965  964  967  970 3 0.628 1.883 0.000 -2.510 -0.000 0.000
 966  964  967  968 3 0.628 1.883 0.000 -2.510 -0.000 0.000
 966  964  967  969 3 0.628 1.883 0.000 -2.510 -0.000 0.000
 966  964  967  970 3 0.628 1.883 0.000 -2.510 -0.000 0.000
 967  970  973  974 3 0.628 1.883 0.000 -2.510 -0.000 0.000
 967  970  973  975 3 0.628 1.883 0.000 -2.510 -0.000 0.000
 967  970  973  976 3 0.628 1.883 0.000 -2.510 -0.000 0.000
 968  967  970  971 3 0.628 1.883 0.000 -2.510 -0.000 0.000
 968  967  970  972 3 0.628 1.883 0.000 -2.510 -0.000 0.000
 968  967  970  973 3 0.628 1.883 0.000 -2.510 -0.000 0.000
 969  967  970  971 3 0.628 1.883 0.000 -2.510 -0.000 0.000
 969  967  970  972 3 0.628 1.883 0.000 -2.510 -0.000 0.000
 969  967  970  973 3 0.628 1.883 0.000 -2.510 -0.000 0.000
 971  970  973  974 3 0.628 1.883 0.000 -2.510 -0.000 0.000
 971  970  973  975 3 0.628 1.883 0.000 -2.510 -0.000 0.000
 971  970  973  976 3 0.628 1.883 0.000 -2.510 -0.000 0.000
 972  970  973  974 3 0.628 1.883 0.000 -2.510 -0.000 0.000
 972  970  973  975 3 0.628 1.883 0.000 -2.510 -0.000 0.000
 972  970  973  976 3 0.628 1.883 0.000 -2.510 -0.000 0.000
 977  978  981  982 3 -0.778 -2.335 0.000 3.113 -0.000 0.000
 977  978  981  985 3 -0.778 -2.335 0.000 3.113 -0.000 0.000
 978  981  982  983 3 58.576 0.000 -58.576 -0.000 -0.000 0.000
 978  981  982  984 3 58.576 0.000 -58.576 -0.000 -0.000 0.000
 978  981  982 1047 3 2.928800 -1.464400 0.209200 -1.673600 0.000000 0.000000
 978  981  985  986 3 1.789 -5.052 -0.962 4.226 -0.000 0.000
 978  981  985  987 3 1.789 -5.052 -0.962 4.226 -0.000 0.000
 979  978  981  982 3 -0.778 -2.335 0.000 3.113 -0.000 0.000
 979  978  981  985 3 -0.778 -2.335 0.000 3.113 -0.000 0.000
 980  978  981  982 3 -0.778 -2.335 0.000 3.113 -0.000 0.000
 980  978  981  985 3 -0.778 -2.335 0.000 3.113 -0.000 0.000
 982  978  981  985 4 180.000 10.460 2
 981  982 1047 1044 3 2.928800 -1.464400 0.209200 -1.673600 0.000000 0.000000
 981  982 1047 1048 3 2.928800 -1.464400 0.209200 -1.673600 0.000000 0.000000
 981  982 1047 1051 3 2.928800 -1.464400 0.209200 -1.673600 0.000000 0.000000
 981  985  987  988 3 31.206 -9.768 -21.439 -0.000 -0.000 0.000
 982  981  985  986 3 30.334 -5.230 -25.104 -0.000 -0.000 0.000
 982  981  985  987 3 -5.858 -6.694 12.552 -0.000 -0.000 0.000
 983  981  982  984 4 180.000 10.460 2
 985  981  982  983 3 58.576 0.000 -58.576 -0.000 -0.000 0.000
 985  981  982  984 3 58.576 0.000 -58.576 -0.000 -0.000 0.000
 985  981  982 1047 3 2.928800 -1.464400 0.209200 -1.673600 0.000000 0.000000
 986  981  985  987 4 180.000 43.932 2
 982 1047 1048 1049 3 0.627600 1.882800 0.000000 -2.510400 0.000000 0.000000
 982 1047 1048 1050 3 0.627600 1.882800 0.000000 -2.510400 0.000000 0.000000
 982 1047 1048 1113 3 2.928800 -1.464400 0.209200 -1.673600 0.000000 0.000000
 982 1047 1051 1052 3 2.874410 0.581580 2.092000 -5.547990 0.000000 0.000000
 982 1047 1051 1053 3 2.874410 0.581580 2.092000 -5.547990 0.000000 0.000000
 983  982 1047 1044 3 0.627600 1.882800 0.000000 -2.510400 0.000000 0.000000
 983  982 1047 1048 3 0.627600 1.882800 0.000000 -2.510400 0.000000 0.000000
 983  982 1047 1051 3 0.627600 1.882800 0.000000 -2.510400 0.000000 0.000000
 984  982 1047 1044 3 0.627600 1.882800 0.000000 -2.510400 0.000000 0.000000
 984  982 1047 1048 3 0.627600 1.882800 0.000000 -2.510400 0.000000 0.000000
 984  982 1047 1051 3 0.627600 1.882800 0.000000 -2.510400 0.000000 0.000000
1043 1044 1047  982 3 0.627600 1.882800 0.000000 -2.510400 0.000000 0.000000
1045 1044 1047  982 3 0.627600 1.882800 0.000000 -2.510400 0.000000 0.000000
1046 1044 1047  982 3 0.627600 1.882800 0.000000 -2.510400 0.000000 0.000000
 985  987  988  989 3 0.414 1.243 0.000 -1.657 -0.000 0.000
 985  987  988  990 3 0.414 1.243 0.000 -1.657 -0.000 0.000
 985  987  988  991 3 -2.197 5.201 0.527 -3.531 -0.000 0.000
 986  985  987  988 3 21.439 0.000 -21.439 -0.000 -0.000 0.000
 987  988  991  992 3 0.979 2.937 0.000 -3.916 -0.000 0.000
 987  988  991  993 3 0.979 2.937 0.000 -3.916 -0.000 0.000
 987  988  991  994 3 2.874 0.582 2.092 -5.548 -0.000 0.000
 988  991  994  995 3 0.628 1.883 0.000 -2.510 -0.000 0.000
 988  991  994  996 3 0.628 1.883 0.000 -2.510 -0.000 0.000
 988  991  994  997 3 2.301 -1.464 0.837 -1.674 -0.000 0.000
 989  988  991  992 3 0.628 1.883 0.000 -2.510 -0.000 0.000
 989  988  991  993 3 0.628 1.883 0.000 -2.510 -0.000 0.000
 989  988  991  994 3 0.628 1.883 0.000 -2.510 -0.000 0.000
 990  988  991  992 3 0.628 1.883 0.000 -2.510 -0.000 0.000
 990  988  991  993 3 0.628 1.883 0.000 -2.510 -0.000 0.000
 990  988  991  994 3 0.628 1.883 0.000 -2.510 -0.000 0.000
 991  994  997  998 3 0.628 1.883 0.000 -2.510 -0.000 0.000
 991  994  997  999 3 0.628 1.883 0.000 -2.510 -0.000 0.000
 991  994  997 1000 3 2.301 -1.464 0.837 -1.674 -0.000 0.000
 992  991  994  995 3 0.628 1.883 0.000 -2.510 -0.000 0.000
 992  991  994  996 3 0.628 1.883 0.000 -2.510 -0.000 0.000
 992  991  994  997 3 0.628 1.883 0.000 -2.510 -0.000 0.000
 993  991  994  995 3 0.628 1.883 0.000 -2.510 -0.000 0.000
 993  991  994  996 3 0.628 1.883 0.000 -2.510 -0.000 0.000
 993  991  994  997 3 0.628 1.883 0.000 -2.510 -0.000 0.000
 994  997 1000 1001 3 0.628 1.883 0.000 -2.510 -0.000 0.000
 994  997 1000 1002 3 0.628 1.883 0.000 -2.510 -0.000 0.000
 994  997 1000 1003 3 2.301 -1.464 0.837 -1.674 -0.000 0.000
 995  994  997  998 3 0.628 1.883 0.000 -2.510 -0.000 0.000
 995  994  997  999 3 0.628 1.883 0.000 -2.510 -0.000 0.000
 995  994  997 1000 3 0.628 1.883 0.000 -2.510 -0.000 0.000
 996  994  997  998 3 0.628 1.883 0.000 -2.510 -0.000 0.000
 996  994  997  999 3 0.628 1.883 0.000 -2.510 -0.000 0.000
 996  994  997 1000 3 0.628 1.883 0.000 -2.510 -0.000 0.000
 997 1000 1003 1004 3 0.628 1.883 0.000 -2.510 -0.000 0.000
 997 1000 1003 1005 3 0.628 1.883 0.000 -2.510 -0.000 0.000
 997 1000 1003 1006 3 2.301 -1.464 0.837 -1.674 -0.000 0.000
 998  997 1000 1001 3 0.628 1.883 0.000 -2.510 -0.000 0.000
 998  997 1000 1002 3 0.628 1.883 0.000 -2.510 -0.000 0.000
 998  997 1000 1003 3 0.628 1.883 0.000 -2.510 -0.000 0.000
 999  997 1000 1001 3 0.628 1.883 0.000 -2.510 -0.000 0.000
 999  997 1000 1002 3 0.628 1.883 0.000 -2.510 -0.000 0.000
 999  997 1000 1003 3 0.628 1.883 0.000 -2.510 -0.000 0.000
1000 1003 1006 1007 3 0.628 1.883 0.000 -2.510 -0.000 0.000
1000 1003 1006 1008 3 0.628 1.883 0.000 -2.510 -0.000 0.000
1000 1003 1006 1009 3 2.301 -1.464 0.837 -1.674 -0.000 0.000
1001 1000 1003 1004 3 0.628 1.883 0.000 -2.510 -0.000 0.000
1001 1000 1003 1005 3 0.628 1.883 0.000 -2.510 -0.000 0.000
1001 1000 1003 1006 3 0.628 1.883 0.000 -2.510 -0.000 0.000
1002 1000 1003 1004 3 0.628 1.883 0.000 -2.510 -0.000 0.000
1002 1000 1003 1005 3 0.628 1.883 0.000 -2.510 -0.000 0.000
1002 1000 1003 1006 3 0.628 1.883 0.000 -2.510 -0.000 0.000
1003 1006 1009 1010 3 0.628 1.883 0.000 -2.510 -0.000 0.000
1003 1006 1009 1011 3 0.628 1.883 0.000 -2.510 -0.000 0.000
1003 1006 1009 1012 3 2.301 -1.464 0.837 -1.674 -0.000 0.000
1004 1003 1006 1007 3 0.628 1.883 0.000 -2.510 -0.000 0.000
1004 1003 1006 1008 3 0.628 1.883 0.000 -2.510 -0.000 0.000
1004 1003 1006 1009 3 0.628 1.883 0.000 -2.510 -0.000 0.000
1005 1003 1006 1007 3 0.628 1.883 0.000 -2.510 -0.000 0.000
1005 1003 1006 1008 3 0.628 1.883 0.000 -2.510 -0.000 0.000
1005 1003 1006 1009 3 0.628 1.883 0.000 -2.510 -0.000 0.000
1006 1009 1012 1013 3 0.628 1.883 0.000 -2.510 -0.000 0.000
1006 1009 1012 1014 3 0.628 1.883 0.000 -2.510 -0.000 0.000
1006 1009 1012 1015 3 2.301 -1.464 0.837 -1.674 -0.000 0.000
1007 1006 1009 1010 3 0.628 1.883 0.000 -2.510 -0.000 0.000
1007 1006 1009 1011 3 0.628 1.883 0.000 -2.510 -0.000 0.000
1007 1006 1009 1012 3 0.628 1.883 0.000 -2.510 -0.000 0.000
1008 1006 1009 1010 3 0.628 1.883 0.000 -2.510 -0.000 0.000
1008 1006 1009 1011 3 0.628 1.883 0.000 -2.510 -0.000 0.000
1008 1006 1009 1012 3 0.628 1.883 0.000 -2.510 -0.000 0.000
1009 1012 1015 1016 3 0.628 1.883 0.000 -2.510 -0.000 0.000
1009 1012 1015 1017 3 0.628 1.883 0.000 -2.510 -0.000 0.000
1009 1012 1015 1018 3 2.301 -1.464 0.837 -1.674 -0.000 0.000
1010 1009 1012 1013 3 0.628 1.883 0.000 -2.510 -0.000 0.000
1010 1009 1012 1014 3 0.628 1.883 0.000 -2.510 -0.000 0.000
1010 1009 1012 1015 3 0.628 1.883 0.000 -2.510 -0.000 0.000
1011 1009 1012 1013 3 0.628 1.883 0.000 -2.510 -0.000 0.000
1011 1009 1012 1014 3 0.628 1.883 0.000 -2.510 -0.000 0.000
1011 1009 1012 1015 3 0.628 1.883 0.000 -2.510 -0.000 0.000
1012 1015 1018 1019 3 0.628 1.883 0.000 -2.510 -0.000 0.000
1012 1015 1018 1020 3 0.628 1.883 0.000 -2.510 -0.000 0.000
1012 1015 1018 1021 3 2.301 -1.464 0.837 -1.674 -0.000 0.000
1013 1012 1015 1016 3 0.628 1.883 0.000 -2.510 -0.000 0.000
1013 1012 1015 1017 3 0.628 1.883 0.000 -2.510 -0.000 0.000
1013 1012 1015 1018 3 0.628 1.883 0.000 -2.510 -0.000 0.000
1014 1012 1015 1016 3 0.628 1.883 0.000 -2.510 -0.000 0.000
1014 1012 1015 1017 3 0.628 1.883 0.000 -2.510 -0.000 0.000
1014 1012 1015 1018 3 0.628 1.883 0.000 -2.510 -0.000 0.000
1015 1018 1021 1022 3 0.628 1.883 0.000 -2.510 -0.000 0.000
1015 1018 1021 1023 3 0.628 1.883 0.000 -2.510 -0.000 0.000
1015 1018 1021 1024 3 2.301 -1.464 0.837 -1.674 -0.000 0.000
1016 1015 1018 1019 3 0.628 1.883 0.000 -2.510 -0.000 0.000
1016 1015 1018 1020 3 0.628 1.883 0.000 -2.510 -0.000 0.000
1016 1015 1018 1021 3 0.628 1.883 0.000 -2.510 -0.000 0.000
1017 1015 1018 1019 3 0.628 1.883 0.000 -2.510 -0.000 0.000
1017 1015 1018 1020 3 0.628 1.883 0.000 -2.510 -0.000 0.000
1017 1015 1018 1021 3 0.628 1.883 0.000 -2.510 -0.000 0.000
1018 1021 1024 1025 3 0.628 1.883 0.000 -2.510 -0.000 0.000
1018 1021 1024 1026 3 0.628 1.883 0.000 -2.510 -0.000 0.000
1018 1021 1024 1027 3 2.301 -1.464 0.837 -1.674 -0.000 0.000
1019 1018 1021 1022 3 0.628 1.883 0.000 -2.510 -0.000 0.000
1019 1018 1021 1023 3 0.628 1.883 0.000 -2.510 -0.000 0.000
1019 1018 1021 1024 3 0.628 1.883 0.000 -2.510 -0.000 0.000
1020 1018 1021 1022 3 0.628 1.883 0.000 -2.510 -0.000 0.000
1020 1018 1021 1023 3 0.628 1.883 0.000 -2.510 -0.000 0.000
1020 1018 1021 1024 3 0.628 1.883 0.000 -2.510 -0.000 0.000
1021 1024 1027 1028 3 0.628 1.883 0.000 -2.510 -0.000 0.000
1021 1024 1027 1029 3 0.628 1.883 0.000 -2.510 -0.000 0.000
1021 1024 1027 1030 3 2.301 -1.464 0.837 -1.674 -0.000 0.000
1022 1021 1024 1025 3 0.628 1.883 0.000 -2.510 -0.000 0.000
1022 1021 1024 1026 3 0.628 1.883 0.000 -2.510 -0.000 0.000
1022 1021 1024 1027 3 0.628 1.883 0.000 -2.510 -0.000 0.000
1023 1021 1024 1025 3 0.628 1.883 0.000 -2.510 -0.000 0.000
1023 1021 1024 1026 3 0.628 1.883 0.000 -2.510 -0.000 0.000
1023 1021 1024 1027 3 0.628 1.883 0.000 -2.510 -0.000 0.000
1024 1027 1030 1031 3 0.628 1.883 0.000 -2.510 -0.000 0.000
1024 1027 1030 1032 3 0.628 1.883 0.000 -2.510 -0.000 0.000
1024 1027 1030 1033 3 2.301 -1.464 0.837 -1.674 -0.000 0.000
1025 1024 1027 1028 3 0.628 1.883 0.000 -2.510 -0.000 0.000
1025 1024 1027 1029 3 0.628 1.883 0.000 -2.510 -0.000 0.000
1025 1024 1027 1030 3 0.628 1.883 0.000 -2.510 -0.000 0.000
1026 1024 1027 1028 3 0.628 1.883 0.000 -2.510 -0.000 0.000
1026 1024 1027 1029 3 0.628 1.883 0.000 -2.510 -0.000 0.000
1026 1024 1027 1030 3 0.628 1.883 0.000 -2.510 -0.000 0.000
1027 1030 1033 1034 3 0.628 1.883 0.000 -2.510 -0.000 0.000
1027 1030 1033 1035 3 0.628 1.883 0.000 -2.510 -0.000 0.000
1027 1030 1033 1036 3 2.301 -1.464 0.837 -1.674 -0.000 0.000
1028 1027 1030 1031 3 0.628 1.883 0.000 -2.510 -0.000 0.000
1028 1027 1030 1032 3 0.628 1.883 0.000 -2.510 -0.000 0.000
1028 1027 1030 1033 3 0.628 1.883 0.000 -2.510 -0.000 0.000
1029 1027 1030 1031 3 0.628 1.883 0.000 -2.510 -0.000 0.000
1029 1027 1030 1032 3 0.628 1.883 0.000 -2.510 -0.000 0.000
1029 1027 1030 1033 3 0.628 1.883 0.000 -2.510 -0.000 0.000
1030 1033 1036 1037 3 0.628 1.883 0.000 -2.510 -0.000 0.000
1030 1033 1036 1038 3 0.628 1.883 0.000 -2.510 -0.000 0.000
1030 1033 1036 1039 3 2.301 -1.464 0.837 -1.674 -0.000 0.000
1031 1030 1033 1034 3 0.628 1.883 0.000 -2.510 -0.000 0.000
1031 1030 1033 1035 3 0.628 1.883 0.000 -2.510 -0.000 0.000
1031 1030 1033 1036 3 0.628 1.883 0.000 -2.510 -0.000 0.000
1032 1030 1033 1034 3 0.628 1.883 0.000 -2.510 -0.000 0.000
1032 1030 1033 1035 3 0.628 1.883 0.000 -2.510 -0.000 0.000
1032 1030 1033 1036 3 0.628 1.883 0.000 -2.510 -0.000 0.000
1033 1036 1039 1040 3 0.628 1.883 0.000 -2.510 -0.000 0.000
1033 1036 1039 1041 3 0.628 1.883 0.000 -2.510 -0.000 0.000
1033 1036 1039 1042 3 0.628 1.883 0.000 -2.510 -0.000 0.000
1034 1033 1036 1037 3 0.628 1.883 0.000 -2.510 -0.000 0.000
1034 1033 1036 1038 3 0.628 1.883 0.000 -2.510 -0.000 0.000
1034 1033 1036 1039 3 0.628 1.883 0.000 -2.510 -0.000 0.000
1035 1033 1036 1037 3 0.628 1.883 0.000 -2.510 -0.000 0.000
1035 1033 1036 1038 3 0.628 1.883 0.000 -2.510 -0.000 0.000
1035 1033 1036 1039 3 0.628 1.883 0.000 -2.510 -0.000 0.000
1037 1036 1039 1040 3 0.628 1.883 0.000 -2.510 -0.000 0.000
1037 1036 1039 1041 3 0.628 1.883 0.000 -2.510 -0.000 0.000
1037 1036 1039 1042 3 0.628 1.883 0.000 -2.510 -0.000 0.000
1038 1036 1039 1040 3 0.628 1.883 0.000 -2.510 -0.000 0.000
1038 1036 1039 1041 3 0.628 1.883 0.000 -2.510 -0.000 0.000
1038 1036 1039 1042 3 0.628 1.883 0.000 -2.510 -0.000 0.000
1043 1044 1047 1048 3 -0.778 -2.335 0.000 3.113 -0.000 0.000
1043 1044 1047 1051 3 -0.778 -2.335 0.000 3.113 -0.000 0.000
1044 1047 1048 1049 3 58.576 0.000 -58.576 -0.000 -0.000 0.000
1044 1047 1048 1050 3 58.576 0.000 -58.576 -0.000 -0.000 0.000
1044 1047 1048 1113 3 2.928800 -1.464400 0.209200 -1.673600 0.000000 0.000000
1044 1047 1051 1052 3 1.789 -5.052 -0.962 4.226 -0.000 0.000
1044 1047 1051 1053 3 1.789 -5.052 -0.962 4.226 -0.000 0.000
1045 1044 1047 1048 3 -0.778 -2.335 0.000 3.113 -0.000 0.000
1045 1044 1047 1051 3 -0.778 -2.335 0.000 3.113 -0.000 0.000
1046 1044 1047 1048 3 -0.778 -2.335 0.000 3.113 -0.000 0.000
1046 1044 1047 1051 3 -0.778 -2.335 0.000 3.113 -0.000 0.000
1048 1044 1047 1051 4 180.000 10.460 2
1047 1048 1113 1110 3 2.928800 -1.464400 0.209200 -1.673600 0.000000 0.000000
1047 1048 1113 1114 3 2.928800 -1.464400 0.209200 -1.673600 0.000000 0.000000
1047 1048 1113 1117 3 2.928800 -1.464400 0.209200 -1.673600 0.000000 0.000000
1047 1051 1053 1054 3 31.206 -9.768 -21.439 -0.000 -0.000 0.000
1048 1047 1051 1052 3 30.334 -5.230 -25.104 -0.000 -0.000 0.000
1048 1047 1051 1053 3 -5.858 -6.694 12.552 -0.000 -0.000 0.000
1049 1047 1048 1050 4 180.000 10.460 2
1051 1047 1048 1049 3 58.576 0.000 -58.576 -0.000 -0.000 0.000
1051 1047 1048 1050 3 58.576 0.000 -58.576 -0.000 -0.000 0.000
1051 1047 1048 1113 3 2.928800 -1.464400 0.209200 -1.673600 0.000000 0.000000
1052 1047 1051 1053 4 180.000 43.932 2
1048 1113 1114 1115 3 0.627600 1.882800 0.000000 -2.510400 0.000000 0.000000
1048 1113 1114 1116 3 0.627600 1.882800 0.000000 -2.510400 0.000000 0.000000
1048 1113 1114 1179 3 2.928800 -1.464400 0.209200 -1.673600 0.000000 0.000000
1048 1113 1117 1118 3 2.874410 0.581580 2.092000 -5.547990 0.000000 0.000000
1048 1113 1117 1119 3 2.874410 0.581580 2.092000 -5.547990 0.000000 0.000000
1049 1048 1113 1110 3 0.627600 1.882800 0.000000 -2.510400 0.000000 0.000000
1049 1048 1113 1114 3 0.627600 1.882800 0.000000 -2.510400 0.000000 0.000000
1049 1048 1113 1117 3 0.627600 1.882800 0.000000 -2.510400 0.000000 0.000000
1050 1048 1113 1110 3 0.627600 1.882800 0.000000 -2.510400 0.000000 0.000000
1050 1048 1113 1114 3 0.627600 1.882800 0.000000 -2.510400 0.000000 0.000000
1050 1048 1113 1117 3 0.627600 1.882800 0.000000 -2.510400 0.000000 0.000000
1109 1110 1113 1048 3 0.627600 1.882800 0.000000 -2.510400 0.000000 0.000000
1111 1110 1113 1048 3 0.627600 1.882800 0.000000 -2.510400 0.000000 0.000000
1112 1110 1113 1048 3 0.627600 1.882800 0.000000 -2.510400 0.000000 0.000000
1051 1053 1054 1055 3 0.414 1.243 0.000 -1.657 -0.000 0.000
1051 1053 1054 1056 3 0.414 1.243 0.000 -1.657 -0.000 0.000
1051 1053 1054 1057 3 -2.197 5.201 0.527 -3.531 -0.000 0.000
1052 1051 1053 1054 3 21.439 0.000 -21.439 -0.000 -0.000 0.000
1053 1054 1057 1058 3 0.979 2.937 0.000 -3.916 -0.000 0.000
1053 1054 1057 1059 3 0.979 2.937 0.000 -3.916 -0.000 0.000
1053 1054 1057 1060 3 2.874 0.582 2.092 -5.548 -0.000 0.000
1054 1057 1060 1061 3 0.628 1.883 0.000 -2.510 -0.000 0.000
1054 1057 1060 1062 3 0.628 1.883 0.000 -2.510 -0.000 0.000
1054 1057 1060 1063 3 2.301 -1.464 0.837 -1.674 -0.000 0.000
1055 1054 1057 1058 3 0.628 1.883 0.000 -2.510 -0.000 0.000
1055 1054 1057 1059 3 0.628 1.883 0.000 -2.510 -0.000 0.000
1055 1054 1057 1060 3 0.628 1.883 0.000 -2.510 -0.000 0.000
1056 1054 1057 1058 3 0.628 1.883 0.000 -2.510 -0.000 0.000
1056 1054 1057 1059 3 0.628 1.883 0.000 -2.510 -0.000 0.000
1056 1054 1057 1060 3 0.628 1.883 0.000 -2.510 -0.000 0.000
1057 1060 1063 1064 3 0.628 1.883 0.000 -2.510 -0.000 0.000
1057 1060 1063 1065 3 0.628 1.883 0.000 -2.510 -0.000 0.000
1057 1060 1063 1066 3 2.301 -1.464 0.837 -1.674 -0.000 0.000
1058 1057 1060 1061 3 0.628 1.883 0.000 -2.510 -0.000 0.000
1058 1057 1060 1062 3 0.628 1.883 0.000 -2.510 -0.000 0.000
1058 1057 1060 1063 3 0.628 1.883 0.000 -2.510 -0.000 0.000
1059 1057 1060 1061 3 0.628 1.883 0.000 -2.510 -0.000 0.000
1059 1057 1060 1062 3 0.628 1.883 0.000 -2.510 -0.000 0.000
1059 1057 1060 1063 3 0.628 1.883 0.000 -2.510 -0.000 0.000
1060 1063 1066 1067 3 0.628 1.883 0.000 -2.510 -0.000 0.000
1060 1063 1066 1068 3 0.628 1.883 0.000 -2.510 -0.000 0.000
1060 1063 1066 1069 3 2.301 -1.464 0.837 -1.674 -0.000 0.000
1061 1060 1063 1064 3 0.628 1.883 0.000 -2.510 -0.000 0.000
1061 1060 1063 1065 3 0.628 1.883 0.000 -2.510 -0.000 0.000
1061 1060 1063 1066 3 0.628 1.883 0.000 -2.510 -0.000 0.000
1062 1060 1063 1064 3 0.628 1.883 0.000 -2.510 -0.000 0.000
1062 1060 1063 1065 3 0.628 1.883 0.000 -2.510 -0.000 0.000
1062 1060 1063 1066 3 0.628 1.883 0.000 -2.510 -0.000 0.000
1063 1066 1069 1070 3 0.628 1.883 0.000 -2.510 -0.000 0.000
1063 1066 1069 1071 3 0.628 1.883 0.000 -2.510 -0.000 0.000
1063 1066 1069 1072 3 2.301 -1.464 0.837 -1.674 -0.000 0.000
1064 1063 1066 1067 3 0.628 1.883 0.000 -2.510 -0.000 0.000
1064 1063 1066 1068 3 0.628 1.883 0.000 -2.510 -0.000 0.000
1064 1063 1066 1069 3 0.628 1.883 0.000 -2.510 -0.000 0.000
1065 1063 1066 1067 3 0.628 1.883 0.000 -2.510 -0.000 0.000
1065 1063 1066 1068 3 0.628 1.883 0.000 -2.510 -0.000 0.000
1065 1063 1066 1069 3 0.628 1.883 0.000 -2.510 -0.000 0.000
1066 1069 1072 1073 3 0.628 1.883 0.000 -2.510 -0.000 0.000
1066 1069 1072 1074 3 0.628 1.883 0.000 -2.510 -0.000 0.000
1066 1069 1072 1075 3 2.301 -1.464 0.837 -1.674 -0.000 0.000
1067 1066 1069 1070 3 0.628 1.883 0.000 -2.510 -0.000 0.000
1067 1066 1069 1071 3 0.628 1.883 0.000 -2.510 -0.000 0.000
1067 1066 1069 1072 3 0.628 1.883 0.000 -2.510 -0.000 0.000
1068 1066 1069 1070 3 0.628 1.883 0.000 -2.510 -0.000 0.000
1068 1066 1069 1071 3 0.628 1.883 0.000 -2.510 -0.000 0.000
1068 1066 1069 1072 3 0.628 1.883 0.000 -2.510 -0.000 0.000
1069 1072 1075 1076 3 0.628 1.883 0.000 -2.510 -0.000 0.000
1069 1072 1075 1077 3 0.628 1.883 0.000 -2.510 -0.000 0.000
1069 1072 1075 1078 3 2.301 -1.464 0.837 -1.674 -0.000 0.000
1070 1069 1072 1073 3 0.628 1.883 0.000 -2.510 -0.000 0.000
1070 1069 1072 1074 3 0.628 1.883 0.000 -2.510 -0.000 0.000
1070 1069 1072 1075 3 0.628 1.883 0.000 -2.510 -0.000 0.000
1071 1069 1072 1073 3 0.628 1.883 0.000 -2.510 -0.000 0.000
1071 1069 1072 1074 3 0.628 1.883 0.000 -2.510 -0.000 0.000
1071 1069 1072 1075 3 0.628 1.883 0.000 -2.510 -0.000 0.000
1072 1075 1078 1079 3 0.628 1.883 0.000 -2.510 -0.000 0.000
1072 1075 1078 1080 3 0.628 1.883 0.000 -2.510 -0.000 0.000
1072 1075 1078 1081 3 2.301 -1.464 0.837 -1.674 -0.000 0.000
1073 1072 1075 1076 3 0.628 1.883 0.000 -2.510 -0.000 0.000
1073 1072 1075 1077 3 0.628 1.883 0.000 -2.510 -0.000 0.000
1073 1072 1075 1078 3 0.628 1.883 0.000 -2.510 -0.000 0.000
1074 1072 1075 1076 3 0.628 1.883 0.000 -2.510 -0.000 0.000
1074 1072 1075 1077 3 0.628 1.883 0.000 -2.510 -0.000 0.000
1074 1072 1075 1078 3 0.628 1.883 0.000 -2.510 -0.000 0.000
1075 1078 1081 1082 3 0.628 1.883 0.000 -2.510 -0.000 0.000
1075 1078 1081 1083 3 0.628 1.883 0.000 -2.510 -0.000 0.000
1075 1078 1081 1084 3 2.301 -1.464 0.837 -1.674 -0.000 0.000
1076 1075 1078 1079 3 0.628 1.883 0.000 -2.510 -0.000 0.000
1076 1075 1078 1080 3 0.628 1.883 0.000 -2.510 -0.000 0.000
1076 1075 1078 1081 3 0.628 1.883 0.000 -2.510 -0.000 0.000
1077 1075 1078 1079 3 0.628 1.883 0.000 -2.510 -0.000 0.000
1077 1075 1078 1080 3 0.628 1.883 0.000 -2.510 -0.000 0.000
1077 1075 1078 1081 3 0.628 1.883 0.000 -2.510 -0.000 0.000
1078 1081 1084 1085 3 0.628 1.883 0.000 -2.510 -0.000 0.000
1078 1081 1084 1086 3 0.628 1.883 0.000 -2.510 -0.000 0.000
1078 1081 1084 1087 3 2.301 -1.464 0.837 -1.674 -0.000 0.000
1079 1078 1081 1082 3 0.628 1.883 0.000 -2.510 -0.000 0.000
1079 1078 1081 1083 3 0.628 1.883 0.000 -2.510 -0.000 0.000
1079 1078 1081 1084 3 0.628 1.883 0.000 -2.510 -0.000 0.000
1080 1078 1081 1082 3 0.628 1.883 0.000 -2.510 -0.000 0.000
1080 1078 1081 1083 3 0.628 1.883 0.000 -2.510 -0.000 0.000
1080 1078 1081 1084 3 0.628 1.883 0.000 -2.510 -0.000 0.000
1081 1084 1087 1088 3 0.628 1.883 0.000 -2.510 -0.000 0.000
1081 1084 1087 1089 3 0.628 1.883 0.000 -2.510 -0.000 0.000
1081 1084 1087 1090 3 2.301 -1.464 0.837 -1.674 -0.000 0.000
1082 1081 1084 1085 3 0.628 1.883 0.000 -2.510 -0.000 0.000
1082 1081 1084 1086 3 0.628 1.883 0.000 -2.510 -0.000 0.000
1082 1081 1084 1087 3 0.628 1.883 0.000 -2.510 -0.000 0.000
1083 1081 1084 1085 3 0.628 1.883 0.000 -2.510 -0.000 0.000
1083 1081 1084 1086 3 0.628 1.883 0.000 -2.510 -0.000 0.000
1083 1081 1084 1087 3 0.628 1.883 0.000 -2.510 -0.000 0.000
1084 1087 1090 1091 3 0.628 1.883 0.000 -2.510 -0.000 0.000
1084 1087 1090 1092 3 0.628 1.883 0.000 -2.510 -0.000 0.000
1084 1087 1090 1093 3 2.301 -1.464 0.837 -1.674 -0.000 0.000
1085 1084 1087 1088 3 0.628 1.883 0.000 -2.510 -0.000 0.000
1085 1084 1087 1089 3 0.628 1.883 0.000 -2.510 -0.000 0.000
1085 1084 1087 1090 3 0.628 1.883 0.000 -2.510 -0.000 0.000
1086 1084 1087 1088 3 0.628 1.883 0.000 -2.510 -0.000 0.000
1086 1084 1087 1089 3 0.628 1.883 0.000 -2.510 -0.000 0.000
1086 1084 1087 1090 3 0.628 1.883 0.000 -2.510 -0.000 0.000
1087 1090 1093 1094 3 0.628 1.883 0.000 -2.510 -0.000 0.000
1087 1090 1093 1095 3 0.628 1.883 0.000 -2.510 -0.000 0.000
1087 1090 1093 1096 3 2.301 -1.464 0.837 -1.674 -0.000 0.000
1088 1087 1090 1091 3 0.628 1.883 0.000 -2.510 -0.000 0.000
1088 1087 1090 1092 3 0.628 1.883 0.000 -2.510 -0.000 0.000
1088 1087 1090 1093 3 0.628 1.883 0.000 -2.510 -0.000 0.000
1089 1087 1090 1091 3 0.628 1.883 0.000 -2.510 -0.000 0.000
1089 1087 1090 1092 3 0.628 1.883 0.000 -2.510 -0.000 0.000
1089 1087 1090 1093 3 0.628 1.883 0.000 -2.510 -0.000 0.000
1090 1093 1096 1097 3 0.628 1.883 0.000 -2.510 -0.000 0.000
1090 1093 1096 1098 3 0.628 1.883 0.000 -2.510 -0.000 0.000
1090 1093 1096 1099 3 2.301 -1.464 0.837 -1.674 -0.000 0.000
1091 1090 1093 1094 3 0.628 1.883 0.000 -2.510 -0.000 0.000
1091 1090 1093 1095 3 0.628 1.883 0.000 -2.510 -0.000 0.000
1091 1090 1093 1096 3 0.628 1.883 0.000 -2.510 -0.000 0.000
1092 1090 1093 1094 3 0.628 1.883 0.000 -2.510 -0.000 0.000
1092 1090 1093 1095 3 0.628 1.883 0.000 -2.510 -0.000 0.000
1092 1090 1093 1096 3 0.628 1.883 0.000 -2.510 -0.000 0.000
1093 1096 1099 1100 3 0.628 1.883 0.000 -2.510 -0.000 0.000
1093 1096 1099 1101 3 0.628 1.883 0.000 -2.510 -0.000 0.000
1093 1096 1099 1102 3 2.301 -1.464 0.837 -1.674 -0.000 0.000
1094 1093 1096 1097 3 0.628 1.883 0.000 -2.510 -0.000 0.000
1094 1093 1096 1098 3 0.628 1.883 0.000 -2.510 -0.000 0.000
1094 1093 1096 1099 3 0.628 1.883 0.000 -2.510 -0.000 0.000
1095 1093 1096 1097 3 0.628 1.883 0.000 -2.510 -0.000 0.000
1095 1093 1096 1098 3 0.628 1.883 0.000 -2.510 -0.000 0.000
1095 1093 1096 1099 3 0.628 1.883 0.000 -2.510 -0.000 0.000
1096 1099 1102 1103 3 0.628 1.883 0.000 -2.510 -0.000 0.000
1096 1099 1102 1104 3 0.628 1.883 0.000 -2.510 -0.000 0.000
1096 1099 1102 1105 3 2.301 -1.464 0.837 -1.674 -0.000 0.000
1097 1096 1099 1100 3 0.628 1.883 0.000 -2.510 -0.000 0.000
1097 1096 1099 1101 3 0.628 1.883 0.000 -2.510 -0.000 0.000
1097 1096 1099 1102 3 0.628 1.883 0.000 -2.510 -0.000 0.000
1098 1096 1099 1100 3 0.628 1.883 0.000 -2.510 -0.000 0.000
1098 1096 1099 1101 3 0.628 1.883 0.000 -2.510 -0.000 0.000
1098 1096 1099 1102 3 0.628 1.883 0.000 -2.510 -0.000 0.000
1099 1102 1105 1106 3 0.628 1.883 0.000 -2.510 -0.000 0.000
1099 1102 1105 1107 3 0.628 1.883 0.000 -2.510 -0.000 0.000
1099 1102 1105 1108 3 0.628 1.883 0.000 -2.510 -0.000 0.000
1100 1099 1102 1103 3 0.628 1.883 0.000 -2.510 -0.000 0.000
1100 1099 1102 1104 3 0.628 1.883 0.000 -2.510 -0.000 0.000
1100 1099 1102 1105 3 0.628 1.883 0.000 -2.510 -0.000 0.000
1101 1099 1102 1103 3 0.628 1.883 0.000 -2.510 -0.000 0.000
1101 1099 1102 1104 3 0.628 1.883 0.000 -2.510 -0.000 0.000
1101 1099 1102 1105 3 0.628 1.883 0.000 -2.510 -0.000 0.000
1103 1102 1105 1106 3 0.628 1.883 0.000 -2.510 -0.000 0.000
1103 1102 1105 1107 3 0.628 1.883 0.000 -2.510 -0.000 0.000
1103 1102 1105 1108 3 0.628 1.883 0.000 -2.510 -0.000 0.000
1104 1102 1105 1106 3 0.628 1.883 0.000 -2.510 -0.000 0.000
1104 1102 1105 1107 3 0.628 1.883 0.000 -2.510 -0.000 0.000
1104 1102 1105 1108 3 0.628 1.883 0.000 -2.510 -0.000 0.000
1109 1110 1113 1114 3 -0.778 -2.335 0.000 3.113 -0.000 0.000
1109 1110 1113 1117 3 -0.778 -2.335 0.000 3.113 -0.000 0.000
1110 1113 1114 1115 3 58.576 0.000 -58.576 -0.000 -0.000 0.000
1110 1113 1114 1116 3 58.576 0.000 -58.576 -0.000 -0.000 0.000
1110 1113 1114 1179 3 2.928800 -1.464400 0.209200 -1.673600 0.000000 0.000000
1110 1113 1117 1118 3 1.789 -5.052 -0.962 4.226 -0.000 0.000
1110 1113 1117 1119 3 1.789 -5.052 -0.962 4.226 -0.000 0.000
1111 1110 1113 1114 3 -0.778 -2.335 0.000 3.113 -0.000 0.000
1111 1110 1113 1117 3 -0.778 -2.335 0.000 3.113 -0.000 0.000
1112 1110 1113 1114 3 -0.778 -2.335 0.000 3.113 -0.000 0.000
1112 1110 1113 1117 3 -0.778 -2.335 0.000 3.113 -0.000 0.000
1114 1110 1113 1117 4 180.000 10.460 2
1113 1114 1179 1176 3 2.928800 -1.464400 0.209200 -1.673600 0.000000 0.000000
1113 1114 1179 1180 3 2.928800 -1.464400 0.209200 -1.673600 0.000000 0.000000
1113 1114 1179 1183 3 2.928800 -1.464400 0.209200 -1.673600 0.000000 0.000000
1113 1117 1119 1120 3 31.206 -9.768 -21.439 -0.000 -0.000 0.000
1114 1113 1117 1118 3 30.334 -5.230 -25.104 -0.000 -0.000 0.000
1114 1113 1117 1119 3 -5.858 -6.694 12.552 -0.000 -0.000 0.000
1115 1113 1114 1116 4 180.000 10.460 2
1117 1113 1114 1115 3 58.576 0.000 -58.576 -0.000 -0.000 0.000
1117 1113 1114 1116 3 58.576 0.000 -58.576 -0.000 -0.000 0.000
1117 1113 1114 1179 3 2.928800 -1.464400 0.209200 -1.673600 0.000000 0.000000
1118 1113 1117 1119 4 180.000 43.932 2
1114 1179 1180 1181 3 0.627600 1.882800 0.000000 -2.510400 0.000000 0.000000
1114 1179 1180 1182 3 0.627600 1.882800 0.000000 -2.510400 0.000000 0.000000
1114 1179 1180 1227 3 2.928800 -1.464400 0.209200 -1.673600 0.000000 0.000000
1114 1179 1183 1184 3 2.874410 0.581580 2.092000 -5.547990 0.000000 0.000000
1114 1179 1183 1185 3 2.874410 0.581580 2.092000 -5.547990 0.000000 0.000000
1115 1114 1179 1176 3 0.627600 1.882800 0.000000 -2.510400 0.000000 0.000000
1115 1114 1179 1180 3 0.627600 1.882800 0.000000 -2.510400 0.000000 0.000000
1115 1114 1179 1183 3 0.627600 1.882800 0.000000 -2.510400 0.000000 0.000000
1116 1114 1179 1176 3 0.627600 1.882800 0.000000 -2.510400 0.000000 0.000000
1116 1114 1179 1180 3 0.627600 1.882800 0.000000 -2.510400 0.000000 0.000000
1116 1114 1179 1183 3 0.627600 1.882800 0.000000 -2.510400 0.000000 0.000000
1175 1176 1179 1114 3 0.627600 1.882800 0.000000 -2.510400 0.000000 0.000000
1177 1176 1179 1114 3 0.627600 1.882800 0.000000 -2.510400 0.000000 0.000000
1178 1176 1179 1114 3 0.627600 1.882800 0.000000 -2.510400 0.000000 0.000000
1117 1119 1120 1121 3 0.414 1.243 0.000 -1.657 -0.000 0.000
1117 1119 1120 1122 3 0.414 1.243 0.000 -1.657 -0.000 0.000
1117 1119 1120 1123 3 -2.197 5.201 0.527 -3.531 -0.000 0.000
1118 1117 1119 1120 3 21.439 0.000 -21.439 -0.000 -0.000 0.000
1119 1120 1123 1124 3 0.979 2.937 0.000 -3.916 -0.000 0.000
1119 1120 1123 1125 3 0.979 2.937 0.000 -3.916 -0.000 0.000
1119 1120 1123 1126 3 2.874 0.582 2.092 -5.548 -0.000 0.000
1120 1123 1126 1127 3 0.628 1.883 0.000 -2.510 -0.000 0.000
1120 1123 1126 1128 3 0.628 1.883 0.000 -2.510 -0.000 0.000
1120 1123 1126 1129 3 2.301 -1.464 0.837 -1.674 -0.000 0.000
1121 1120 1123 1124 3 0.628 1.883 0.000 -2.510 -0.000 0.000
1121 1120 1123 1125 3 0.628 1.883 0.000 -2.510 -0.000 0.000
1121 1120 1123 1126 3 0.628 1.883 0.000 -2.510 -0.000 0.000
1122 1120 1123 1124 3 0.628 1.883 0.000 -2.510 -0.000 0.000
1122 1120 1123 1125 3 0.628 1.883 0.000 -2.510 -0.000 0.000
1122 1120 1123 1126 3 0.628 1.883 0.000 -2.510 -0.000 0.000
1123 1126 1129 1130 3 0.628 1.883 0.000 -2.510 -0.000 0.000
1123 1126 1129 1131 3 0.628 1.883 0.000 -2.510 -0.000 0.000
1123 1126 1129 1132 3 2.301 -1.464 0.837 -1.674 -0.000 0.000
1124 1123 1126 1127 3 0.628 1.883 0.000 -2.510 -0.000 0.000
1124 1123 1126 1128 3 0.628 1.883 0.000 -2.510 -0.000 0.000
1124 1123 1126 1129 3 0.628 1.883 0.000 -2.510 -0.000 0.000
1125 1123 1126 1127 3 0.628 1.883 0.000 -2.510 -0.000 0.000
1125 1123 1126 1128 3 0.628 1.883 0.000 -2.510 -0.000 0.000
1125 1123 1126 1129 3 0.628 1.883 0.000 -2.510 -0.000 0.000
1126 1129 1132 1133 3 0.628 1.883 0.000 -2.510 -0.000 0.000
1126 1129 1132 1134 3 0.628 1.883 0.000 -2.510 -0.000 0.000
1126 1129 1132 1135 3 2.301 -1.464 0.837 -1.674 -0.000 0.000
1127 1126 1129 1130 3 0.628 1.883 0.000 -2.510 -0.000 0.000
1127 1126 1129 1131 3 0.628 1.883 0.000 -2.510 -0.000 0.000
1127 1126 1129 1132 3 0.628 1.883 0.000 -2.510 -0.000 0.000
1128 1126 1129 1130 3 0.628 1.883 0.000 -2.510 -0.000 0.000
1128 1126 1129 1131 3 0.628 1.883 0.000 -2.510 -0.000 0.000
1128 1126 1129 1132 3 0.628 1.883 0.000 -2.510 -0.000 0.000
1129 1132 1135 1136 3 0.628 1.883 0.000 -2.510 -0.000 0.000
1129 1132 1135 1137 3 0.628 1.883 0.000 -2.510 -0.000 0.000
1129 1132 1135 1138 3 2.301 -1.464 0.837 -1.674 -0.000 0.000
1130 1129 1132 1133 3 0.628 1.883 0.000 -2.510 -0.000 0.000
1130 1129 1132 1134 3 0.628 1.883 0.000 -2.510 -0.000 0.000
1130 1129 1132 1135 3 0.628 1.883 0.000 -2.510 -0.000 0.000
1131 1129 1132 1133 3 0.628 1.883 0.000 -2.510 -0.000 0.000
1131 1129 1132 1134 3 0.628 1.883 0.000 -2.510 -0.000 0.000
1131 1129 1132 1135 3 0.628 1.883 0.000 -2.510 -0.000 0.000
1132 1135 1138 1139 3 0.628 1.883 0.000 -2.510 -0.000 0.000
1132 1135 1138 1140 3 0.628 1.883 0.000 -2.510 -0.000 0.000
1132 1135 1138 1141 3 2.301 -1.464 0.837 -1.674 -0.000 0.000
1133 1132 1135 1136 3 0.628 1.883 0.000 -2.510 -0.000 0.000
1133 1132 1135 1137 3 0.628 1.883 0.000 -2.510 -0.000 0.000
1133 1132 1135 1138 3 0.628 1.883 0.000 -2.510 -0.000 0.000
1134 1132 1135 1136 3 0.628 1.883 0.000 -2.510 -0.000 0.000
1134 1132 1135 1137 3 0.628 1.883 0.000 -2.510 -0.000 0.000
1134 1132 1135 1138 3 0.628 1.883 0.000 -2.510 -0.000 0.000
1135 1138 1141 1142 3 0.628 1.883 0.000 -2.510 -0.000 0.000
1135 1138 1141 1143 3 0.628 1.883 0.000 -2.510 -0.000 0.000
1135 1138 1141 1144 3 2.301 -1.464 0.837 -1.674 -0.000 0.000
1136 1135 1138 1139 3 0.628 1.883 0.000 -2.510 -0.000 0.000
1136 1135 1138 1140 3 0.628 1.883 0.000 -2.510 -0.000 0.000
1136 1135 1138 1141 3 0.628 1.883 0.000 -2.510 -0.000 0.000
1137 1135 1138 1139 3 0.628 1.883 0.000 -2.510 -0.000 0.000
1137 1135 1138 1140 3 0.628 1.883 0.000 -2.510 -0.000 0.000
1137 1135 1138 1141 3 0.628 1.883 0.000 -2.510 -0.000 0.000
1138 1141 1144 1145 3 0.628 1.883 0.000 -2.510 -0.000 0.000
1138 1141 1144 1146 3 0.628 1.883 0.000 -2.510 -0.000 0.000
1138 1141 1144 1147 3 2.301 -1.464 0.837 -1.674 -0.000 0.000
1139 1138 1141 1142 3 0.628 1.883 0.000 -2.510 -0.000 0.000
1139 1138 1141 1143 3 0.628 1.883 0.000 -2.510 -0.000 0.000
1139 1138 1141 1144 3 0.628 1.883 0.000 -2.510 -0.000 0.000
1140 1138 1141 1142 3 0.628 1.883 0.000 -2.510 -0.000 0.000
1140 1138 1141 1143 3 0.628 1.883 0.000 -2.510 -0.000 0.000
1140 1138 1141 1144 3 0.628 1.883 0.000 -2.510 -0.000 0.000
1141 1144 1147 1148 3 0.628 1.883 0.000 -2.510 -0.000 0.000
1141 1144 1147 1149 3 0.628 1.883 0.000 -2.510 -0.000 0.000
1141 1144 1147 1150 3 2.301 -1.464 0.837 -1.674 -0.000 0.000
1142 1141 1144 1145 3 0.628 1.883 0.000 -2.510 -0.000 0.000
1142 1141 1144 1146 3 0.628 1.883 0.000 -2.510 -0.000 0.000
1142 1141 1144 1147 3 0.628 1.883 0.000 -2.510 -0.000 0.000
1143 1141 1144 1145 3 0.628 1.883 0.000 -2.510 -0.000 0.000
1143 1141 1144 1146 3 0.628 1.883 0.000 -2.510 -0.000 0.000
1143 1141 1144 1147 3 0.628 1.883 0.000 -2.510 -0.000 0.000
1144 1147 1150 1151 3 0.628 1.883 0.000 -2.510 -0.000 0.000
1144 1147 1150 1152 3 0.628 1.883 0.000 -2.510 -0.000 0.000
1144 1147 1150 1153 3 2.301 -1.464 0.837 -1.674 -0.000 0.000
1145 1144 1147 1148 3 0.628 1.883 0.000 -2.510 -0.000 0.000
1145 1144 1147 1149 3 0.628 1.883 0.000 -2.510 -0.000 0.000
1145 1144 1147 1150 3 0.628 1.883 0.000 -2.510 -0.000 0.000
1146 1144 1147 1148 3 0.628 1.883 0.000 -2.510 -0.000 0.000
1146 1144 1147 1149 3 0.628 1.883 0.000 -2.510 -0.000 0.000
1146 1144 1147 1150 3 0.628 1.883 0.000 -2.510 -0.000 0.000
1147 1150 1153 1154 3 0.628 1.883 0.000 -2.510 -0.000 0.000
1147 1150 1153 1155 3 0.628 1.883 0.000 -2.510 -0.000 0.000
1147 1150 1153 1156 3 2.301 -1.464 0.837 -1.674 -0.000 0.000
1148 1147 1150 1151 3 0.628 1.883 0.000 -2.510 -0.000 0.000
1148 1147 1150 1152 3 0.628 1.883 0.000 -2.510 -0.000 0.000
1148 1147 1150 1153 3 0.628 1.883 0.000 -2.510 -0.000 0.000
1149 1147 1150 1151 3 0.628 1.883 0.000 -2.510 -0.000 0.000
1149 1147 1150 1152 3 0.628 1.883 0.000 -2.510 -0.000 0.000
1149 1147 1150 1153 3 0.628 1.883 0.000 -2.510 -0.000 0.000
1150 1153 1156 1157 3 0.628 1.883 0.000 -2.510 -0.000 0.000
1150 1153 1156 1158 3 0.628 1.883 0.000 -2.510 -0.000 0.000
1150 1153 1156 1159 3 2.301 -1.464 0.837 -1.674 -0.000 0.000
1151 1150 1153 1154 3 0.628 1.883 0.000 -2.510 -0.000 0.000
1151 1150 1153 1155 3 0.628 1.883 0.000 -2.510 -0.000 0.000
1151 1150 1153 1156 3 0.628 1.883 0.000 -2.510 -0.000 0.000
1152 1150 1153 1154 3 0.628 1.883 0.000 -2.510 -0.000 0.000
1152 1150 1153 1155 3 0.628 1.883 0.000 -2.510 -0.000 0.000
1152 1150 1153 1156 3 0.628 1.883 0.000 -2.510 -0.000 0.000
1153 1156 1159 1160 3 0.628 1.883 0.000 -2.510 -0.000 0.000
1153 1156 1159 1161 3 0.628 1.883 0.000 -2.510 -0.000 0.000
1153 1156 1159 1162 3 2.301 -1.464 0.837 -1.674 -0.000 0.000
1154 1153 1156 1157 3 0.628 1.883 0.000 -2.510 -0.000 0.000
1154 1153 1156 1158 3 0.628 1.883 0.000 -2.510 -0.000 0.000
1154 1153 1156 1159 3 0.628 1.883 0.000 -2.510 -0.000 0.000
1155 1153 1156 1157 3 0.628 1.883 0.000 -2.510 -0.000 0.000
1155 1153 1156 1158 3 0.628 1.883 0.000 -2.510 -0.000 0.000
1155 1153 1156 1159 3 0.628 1.883 0.000 -2.510 -0.000 0.000
1156 1159 1162 1163 3 0.628 1.883 0.000 -2.510 -0.000 0.000
1156 1159 1162 1164 3 0.628 1.883 0.000 -2.510 -0.000 0.000
1156 1159 1162 1165 3 2.301 -1.464 0.837 -1.674 -0.000 0.000
1157 1156 1159 1160 3 0.628 1.883 0.000 -2.510 -0.000 0.000
1157 1156 1159 1161 3 0.628 1.883 0.000 -2.510 -0.000 0.000
1157 1156 1159 1162 3 0.628 1.883 0.000 -2.510 -0.000 0.000
1158 1156 1159 1160 3 0.628 1.883 0.000 -2.510 -0.000 0.000
1158 1156 1159 1161 3 0.628 1.883 0.000 -2.510 -0.000 0.000
1158 1156 1159 1162 3 0.628 1.883 0.000 -2.510 -0.000 0.000
1159 1162 1165 1166 3 0.628 1.883 0.000 -2.510 -0.000 0.000
1159 1162 1165 1167 3 0.628 1.883 0.000 -2.510 -0.000 0.000
1159 1162 1165 1168 3 2.301 -1.464 0.837 -1.674 -0.000 0.000
1160 1159 1162 1163 3 0.628 1.883 0.000 -2.510 -0.000 0.000
1160 1159 1162 1164 3 0.628 1.883 0.000 -2.510 -0.000 0.000
1160 1159 1162 1165 3 0.628 1.883 0.000 -2.510 -0.000 0.000
1161 1159 1162 1163 3 0.628 1.883 0.000 -2.510 -0.000 0.000
1161 1159 1162 1164 3 0.628 1.883 0.000 -2.510 -0.000 0.000
1161 1159 1162 1165 3 0.628 1.883 0.000 -2.510 -0.000 0.000
1162 1165 1168 1169 3 0.628 1.883 0.000 -2.510 -0.000 0.000
1162 1165 1168 1170 3 0.628 1.883 0.000 -2.510 -0.000 0.000
1162 1165 1168 1171 3 2.301 -1.464 0.837 -1.674 -0.000 0.000
1163 1162 1165 1166 3 0.628 1.883 0.000 -2.510 -0.000 0.000
1163 1162 1165 1167 3 0.628 1.883 0.000 -2.510 -0.000 0.000
1163 1162 1165 1168 3 0.628 1.883 0.000 -2.510 -0.000 0.000
1164 1162 1165 1166 3 0.628 1.883 0.000 -2.510 -0.000 0.000
1164 1162 1165 1167 3 0.628 1.883 0.000 -2.510 -0.000 0.000
1164 1162 1165 1168 3 0.628 1.883 0.000 -2.510 -0.000 0.000
1165 1168 1171 1172 3 0.628 1.883 0.000 -2.510 -0.000 0.000
1165 1168 1171 1173 3 0.628 1.883 0.000 -2.510 -0.000 0.000
1165 1168 1171 1174 3 0.628 1.883 0.000 -2.510 -0.000 0.000
1166 1165 1168 1169 3 0.628 1.883 0.000 -2.510 -0.000 0.000
1166 1165 1168 1170 3 0.628 1.883 0.000 -2.510 -0.000 0.000
1166 1165 1168 1171 3 0.628 1.883 0.000 -2.510 -0.000 0.000
1167 1165 1168 1169 3 0.628 1.883 0.000 -2.510 -0.000 0.000
1167 1165 1168 1170 3 0.628 1.883 0.000 -2.510 -0.000 0.000
1167 1165 1168 1171 3 0.628 1.883 0.000 -2.510 -0.000 0.000
1169 1168 1171 1172 3 0.628 1.883 0.000 -2.510 -0.000 0.000
1169 1168 1171 1173 3 0.628 1.883 0.000 -2.510 -0.000 0.000
1169 1168 1171 1174 3 0.628 1.883 0.000 -2.510 -0.000 0.000
1170 1168 1171 1172 3 0.628 1.883 0.000 -2.510 -0.000 0.000
1170 1168 1171 1173 3 0.628 1.883 0.000 -2.510 -0.000 0.000
1170 1168 1171 1174 3 0.628 1.883 0.000 -2.510 -0.000 0.000
1175 1176 1179 1180 3 -0.778 -2.335 0.000 3.113 -0.000 0.000
1175 1176 1179 1183 3 -0.778 -2.335 0.000 3.113 -0.000 0.000
1176 1179 1180 1181 3 58.576 0.000 -58.576 -0.000 -0.000 0.000
1176 1179 1180 1182 3 58.576 0.000 -58.576 -0.000 -0.000 0.000
1176 1179 1180 1227 3 2.928800 -1.464400 0.209200 -1.673600 0.000000 0.000000
1176 1179 1183 1184 3 1.789 -5.052 -0.962 4.226 -0.000 0.000
1176 1179 1183 1185 3 1.789 -5.052 -0.962 4.226 -0.000 0.000
1177 1176 1179 1180 3 -0.778 -2.335 0.000 3.113 -0.000 0.000
1177 1176 1179 1183 3 -0.778 -2.335 0.000 3.113 -0.000 0.000
1178 1176 1179 1180 3 -0.778 -2.335 0.000 3.113 -0.000 0.000
1178 1176 1179 1183 3 -0.778 -2.335 0.000 3.113 -0.000 0.000
1180 1176 1179 1183 4 180.000 10.460 2
1179 1180 1227 1224 3 2.928800 -1.464400 0.209200 -1.673600 0.000000 0.000000
1179 1180 1227 1228 3 2.928800 -1.464400 0.209200 -1.673600 0.000000 0.000000
1179 1180 1227 1231 3 2.928800 -1.464400 0.209200 -1.673600 0.000000 0.000000
1179 1183 1185 1186 3 31.206 -9.768 -21.439 -0.000 -0.000 0.000
1180 1179 1183 1184 3 30.334 -5.230 -25.104 -0.000 -0.000 0.000
1180 1179 1183 1185 3 -5.858 -6.694 12.552 -0.000 -0.000 0.000
1181 1179 1180 1182 4 180.000 10.460 2
1183 1179 1180 1181 3 58.576 0.000 -58.576 -0.000 -0.000 0.000
1183 1179 1180 1182 3 58.576 0.000 -58.576 -0.000 -0.000 0.000
1183 1179 1180 1227 3 2.928800 -1.464400 0.209200 -1.673600 0.000000 0.000000
1184 1179 1183 1185 4 180.000 43.932 2
1180 1227 1228 1229 3 0.627600 1.882800 0.000000 -2.510400 0.000000 0.000000
1180 1227 1228 1230 3 0.627600 1.882800 0.000000 -2.510400 0.000000 0.000000
1180 1227 1228 1263 3 2.928800 -1.464400 0.209200 -1.673600 0.000000 0.000000
1180 1227 1231 1232 3 2.874410 0.581580 2.092000 -5.547990 0.000000 0.000000
1180 1227 1231 1233 3 2.874410 0.581580 2.092000 -5.547990 0.000000 0.000000
1181 1180 1227 1224 3 0.627600 1.882800 0.000000 -2.510400 0.000000 0.000000
1181 1180 1227 1228 3 0.627600 1.882800 0.000000 -2.510400 0.000000 0.000000
1181 1180 1227 1231 3 0.627600 1.882800 0.000000 -2.510400 0.000000 0.000000
1182 1180 1227 1224 3 0.627600 1.882800 0.000000 -2.510400 0.000000 0.000000
1182 1180 1227 1228 3 0.627600 1.882800 0.000000 -2.510400 0.000000 0.000000
1182 1180 1227 1231 3 0.627600 1.882800 0.000000 -2.510400 0.000000 0.000000
1223 1224 1227 1180 3 0.627600 1.882800 0.000000 -2.510400 0.000000 0.000000
1225 1224 1227 1180 3 0.627600 1.882800 0.000000 -2.510400 0.000000 0.000000
1226 1224 1227 1180 3 0.627600 1.882800 0.000000 -2.510400 0.000000 0.000000
1183 1185 1186 1187 3 0.414 1.243 0.000 -1.657 -0.000 0.000
1183 1185 1186 1188 3 0.414 1.243 0.000 -1.657 -0.000 0.000
1183 1185 1186 1189 3 -2.197 5.201 0.527 -3.531 -0.000 0.000
1184 1183 1185 1186 3 21.439 0.000 -21.439 -0.000 -0.000 0.000
1185 1186 1189 1190 3 0.979 2.937 0.000 -3.916 -0.000 0.000
1185 1186 1189 1191 3 0.979 2.937 0.000 -3.916 -0.000 0.000
1185 1186 1189 1192 3 2.874 0.582 2.092 -5.548 -0.000 0.000
1186 1189 1192 1193 3 0.628 1.883 0.000 -2.510 -0.000 0.000
1186 1189 1192 1194 3 0.628 1.883 0.000 -2.510 -0.000 0.000
1186 1189 1192 1195 3 2.301 -1.464 0.837 -1.674 -0.000 0.000
1187 1186 1189 1190 3 0.628 1.883 0.000 -2.510 -0.000 0.000
1187 1186 1189 1191 3 0.628 1.883 0.000 -2.510 -0.000 0.000
1187 1186 1189 1192 3 0.628 1.883 0.000 -2.510 -0.000 0.000
1188 1186 1189 1190 3 0.628 1.883 0.000 -2.510 -0.000 0.000
1188 1186 1189 1191 3 0.628 1.883 0.000 -2.510 -0.000 0.000
1188 1186 1189 1192 3 0.628 1.883 0.000 -2.510 -0.000 0.000
1189 1192 1195 1196 3 0.628 1.883 0.000 -2.510 -0.000 0.000
1189 1192 1195 1197 3 0.628 1.883 0.000 -2.510 -0.000 0.000
1189 1192 1195 1198 3 2.301 -1.464 0.837 -1.674 -0.000 0.000
1190 1189 1192 1193 3 0.628 1.883 0.000 -2.510 -0.000 0.000
1190 1189 1192 1194 3 0.628 1.883 0.000 -2.510 -0.000 0.000
1190 1189 1192 1195 3 0.628 1.883 0.000 -2.510 -0.000 0.000
1191 1189 1192 1193 3 0.628 1.883 0.000 -2.510 -0.000 0.000
1191 1189 1192 1194 3 0.628 1.883 0.000 -2.510 -0.000 0.000
1191 1189 1192 1195 3 0.628 1.883 0.000 -2.510 -0.000 0.000
1192 1195 1198 1199 3 0.628 1.883 0.000 -2.510 -0.000 0.000
1192 1195 1198 1200 3 0.628 1.883 0.000 -2.510 -0.000 0.000
1192 1195 1198 1201 3 2.301 -1.464 0.837 -1.674 -0.000 0.000
1193 1192 1195 1196 3 0.628 1.883 0.000 -2.510 -0.000 0.000
1193 1192 1195 1197 3 0.628 1.883 0.000 -2.510 -0.000 0.000
1193 1192 1195 1198 3 0.628 1.883 0.000 -2.510 -0.000 0.000
1194 1192 1195 1196 3 0.628 1.883 0.000 -2.510 -0.000 0.000
1194 1192 1195 1197 3 0.628 1.883 0.000 -2.510 -0.000 0.000
1194 1192 1195 1198 3 0.628 1.883 0.000 -2.510 -0.000 0.000
1195 1198 1201 1202 3 0.628 1.883 0.000 -2.510 -0.000 0.000
1195 1198 1201 1203 3 0.628 1.883 0.000 -2.510 -0.000 0.000
1195 1198 1201 1204 3 2.301 -1.464 0.837 -1.674 -0.000 0.000
1196 1195 1198 1199 3 0.628 1.883 0.000 -2.510 -0.000 0.000
1196 1195 1198 1200 3 0.628 1.883 0.000 -2.510 -0.000 0.000
1196 1195 1198 1201 3 0.628 1.883 0.000 -2.510 -0.000 0.000
1197 1195 1198 1199 3 0.628 1.883 0.000 -2.510 -0.000 0.000
1197 1195 1198 1200 3 0.628 1.883 0.000 -2.510 -0.000 0.000
1197 1195 1198 1201 3 0.628 1.883 0.000 -2.510 -0.000 0.000
1198 1201 1204 1205 3 0.628 1.883 0.000 -2.510 -0.000 0.000
1198 1201 1204 1206 3 0.628 1.883 0.000 -2.510 -0.000 0.000
1198 1201 1204 1207 3 2.301 -1.464 0.837 -1.674 -0.000 0.000
1199 1198 1201 1202 3 0.628 1.883 0.000 -2.510 -0.000 0.000
1199 1198 1201 1203 3 0.628 1.883 0.000 -2.510 -0.000 0.000
1199 1198 1201 1204 3 0.628 1.883 0.000 -2.510 -0.000 0.000
1200 1198 1201 1202 3 0.628 1.883 0.000 -2.510 -0.000 0.000
1200 1198 1201 1203 3 0.628 1.883 0.000 -2.510 -0.000 0.000
1200 1198 1201 1204 3 0.628 1.883 0.000 -2.510 -0.000 0.000
1201 1204 1207 1208 3 0.628 1.883 0.000 -2.510 -0.000 0.000
1201 1204 1207 1209 3 0.628 1.883 0.000 -2.510 -0.000 0.000
1201 1204 1207 1210 3 2.301 -1.464 0.837 -1.674 -0.000 0.000
1202 1201 1204 1205 3 0.628 1.883 0.000 -2.510 -0.000 0.000
1202 1201 1204 1206 3 0.628 1.883 0.000 -2.510 -0.000 0.000
1202 1201 1204 1207 3 0.628 1.883 0.000 -2.510 -0.000 0.000
1203 1201 1204 1205 3 0.628 1.883 0.000 -2.510 -0.000 0.000
1203 1201 1204 1206 3 0.628 1.883 0.000 -2.510 -0.000 0.000
1203 1201 1204 1207 3 0.628 1.883 0.000 -2.510 -0.000 0.000
1204 1207 1210 1211 3 0.628 1.883 0.000 -2.510 -0.000 0.000
1204 1207 1210 1212 3 0.628 1.883 0.000 -2.510 -0.000 0.000
1204 1207 1210 1213 3 2.301 -1.464 0.837 -1.674 -0.000 0.000
1205 1204 1207 1208 3 0.628 1.883 0.000 -2.510 -0.000 0.000
1205 1204 1207 1209 3 0.628 1.883 0.000 -2.510 -0.000 0.000
1205 1204 1207 1210 3 0.628 1.883 0.000 -2.510 -0.000 0.000
1206 1204 1207 1208 3 0.628 1.883 0.000 -2.510 -0.000 0.000
1206 1204 1207 1209 3 0.628 1.883 0.000 -2.510 -0.000 0.000
1206 1204 1207 1210 3 0.628 1.883 0.000 -2.510 -0.000 0.000
1207 1210 1213 1214 3 0.628 1.883 0.000 -2.510 -0.000 0.000
1207 1210 1213 1215 3 0.628 1.883 0.000 -2.510 -0.000 0.000
1207 1210 1213 1216 3 2.301 -1.464 0.837 -1.674 -0.000 0.000
1208 1207 1210 1211 3 0.628 1.883 0.000 -2.510 -0.000 0.000
1208 1207 1210 1212 3 0.628 1.883 0.000 -2.510 -0.000 0.000
1208 1207 1210 1213 3 0.628 1.883 0.000 -2.510 -0.000 0.000
1209 1207 1210 1211 3 0.628 1.883 0.000 -2.510 -0.000 0.000
1209 1207 1210 1212 3 0.628 1.883 0.000 -2.510 -0.000 0.000
1209 1207 1210 1213 3 0.628 1.883 0.000 -2.510 -0.000 0.000
1210 1213 1216 1217 3 0.628 1.883 0.000 -2.510 -0.000 0.000
1210 1213 1216 1218 3 0.628 1.883 0.000 -2.510 -0.000 0.000
1210 1213 1216 1219 3 2.301 -1.464 0.837 -1.674 -0.000 0.000
1211 1210 1213 1214 3 0.628 1.883 0.000 -2.510 -0.000 0.000
1211 1210 1213 1215 3 0.628 1.883 0.000 -2.510 -0.000 0.000
1211 1210 1213 1216 3 0.628 1.883 0.000 -2.510 -0.000 0.000
1212 1210 1213 1214 3 0.628 1.883 0.000 -2.510 -0.000 0.000
1212 1210 1213 1215 3 0.628 1.883 0.000 -2.510 -0.000 0.000
1212 1210 1213 1216 3 0.628 1.883 0.000 -2.510 -0.000 0.000
1213 1216 1219 1220 3 0.628 1.883 0.000 -2.510 -0.000 0.000
1213 1216 1219 1221 3 0.628 1.883 0.000 -2.510 -0.000 0.000
1213 1216 1219 1222 3 0.628 1.883 0.000 -2.510 -0.000 0.000
1214 1213 1216 1217 3 0.628 1.883 0.000 -2.510 -0.000 0.000
1214 1213 1216 1218 3 0.628 1.883 0.000 -2.510 -0.000 0.000
1214 1213 1216 1219 3 0.628 1.883 0.000 -2.510 -0.000 0.000
1215 1213 1216 1217 3 0.628 1.883 0.000 -2.510 -0.000 0.000
1215 1213 1216 1218 3 0.628 1.883 0.000 -2.510 -0.000 0.000
1215 1213 1216 1219 3 0.628 1.883 0.000 -2.510 -0.000 0.000
1217 1216 1219 1220 3 0.628 1.883 0.000 -2.510 -0.000 0.000
1217 1216 1219 1221 3 0.628 1.883 0.000 -2.510 -0.000 0.000
1217 1216 1219 1222 3 0.628 1.883 0.000 -2.510 -0.000 0.000
1218 1216 1219 1220 3 0.628 1.883 0.000 -2.510 -0.000 0.000
1218 1216 1219 1221 3 0.628 1.883 0.000 -2.510 -0.000 0.000
1218 1216 1219 1222 3 0.628 1.883 0.000 -2.510 -0.000 0.000
1223 1224 1227 1228 3 -0.778 -2.335 0.000 3.113 -0.000 0.000
1223 1224 1227 1231 3 -0.778 -2.335 0.000 3.113 -0.000 0.000
1224 1227 1228 1229 3 58.576 0.000 -58.576 -0.000 -0.000 0.000
1224 1227 1228 1230 3 58.576 0.000 -58.576 -0.000 -0.000 0.000
1224 1227 1228 1263 3 2.928800 -1.464400 0.209200 -1.673600 0.000000 0.000000
1224 1227 1231 1232 3 1.789 -5.052 -0.962 4.226 -0.000 0.000
1224 1227 1231 1233 3 1.789 -5.052 -0.962 4.226 -0.000 0.000
1225 1224 1227 1228 3 -0.778 -2.335 0.000 3.113 -0.000 0.000
1225 1224 1227 1231 3 -0.778 -2.335 0.000 3.113 -0.000 0.000
1226 1224 1227 1228 3 -0.778 -2.335 0.000 3.113 -0.000 0.000
1226 1224 1227 1231 3 -0.778 -2.335 0.000 3.113 -0.000 0.000
1228 1224 1227 1231 4 180.000 10.460 2
1227 1228 1263 1260 3 2.928800 -1.464400 0.209200 -1.673600 0.000000 0.000000
1227 1228 1263 1264 3 2.928800 -1.464400 0.209200 -1.673600 0.000000 0.000000
1227 1228 1263 1267 3 2.928800 -1.464400 0.209200 -1.673600 0.000000 0.000000
1227 1231 1233 1234 3 31.206 -9.768 -21.439 -0.000 -0.000 0.000
1228 1227 1231 1232 3 30.334 -5.230 -25.104 -0.000 -0.000 0.000
1228 1227 1231 1233 3 -5.858 -6.694 12.552 -0.000 -0.000 0.000
1229 1227 1228 1230 4 180.000 10.460 2
1231 1227 1228 1229 3 58.576 0.000 -58.576 -0.000 -0.000 0.000
1231 1227 1228 1230 3 58.576 0.000 -58.576 -0.000 -0.000 0.000
1231 1227 1228 1263 3 2.928800 -1.464400 0.209200 -1.673600 0.000000 0.000000
1232 1227 1231 1233 4 180.000 43.932 2
1228 1263 1264 1265 3 0.627600 1.882800 0.000000 -2.510400 0.000000 0.000000
1228 1263 1264 1266 3 0.627600 1.882800 0.000000 -2.510400 0.000000 0.000000
1228 1263 1264 1311 3 2.928800 -1.464400 0.209200 -1.673600 0.000000 0.000000
1228 1263 1267 1268 3 2.874410 0.581580 2.092000 -5.547990 0.000000 0.000000
1228 1263 1267 1269 3 2.874410 0.581580 2.092000 -5.547990 0.000000 0.000000
1229 1228 1263 1260 3 0.627600 1.882800 0.000000 -2.510400 0.000000 0.000000
1229 1228 1263 1264 3 0.627600 1.882800 0.000000 -2.510400 0.000000 0.000000
1229 1228 1263 1267 3 0.627600 1.882800 0.000000 -2.510400 0.000000 0.000000
1230 1228 1263 1260 3 0.627600 1.882800 0.000000 -2.510400 0.000000 0.000000
1230 1228 1263 1264 3 0.627600 1.882800 0.000000 -2.510400 0.000000 0.000000
1230 1228 1263 1267 3 0.627600 1.882800 0.000000 -2.510400 0.000000 0.000000
1259 1260 1263 1228 3 0.627600 1.882800 0.000000 -2.510400 0.000000 0.000000
1261 1260 1263 1228 3 0.627600 1.882800 0.000000 -2.510400 0.000000 0.000000
1262 1260 1263 1228 3 0.627600 1.882800 0.000000 -2.510400 0.000000 0.000000
1231 1233 1234 1235 3 0.414 1.243 0.000 -1.657 -0.000 0.000
1231 1233 1234 1236 3 0.414 1.243 0.000 -1.657 -0.000 0.000
1231 1233 1234 1237 3 -2.197 5.201 0.527 -3.531 -0.000 0.000
1232 1231 1233 1234 3 21.439 0.000 -21.439 -0.000 -0.000 0.000
1233 1234 1237 1238 3 0.979 2.937 0.000 -3.916 -0.000 0.000
1233 1234 1237 1239 3 2.874 0.582 2.092 -5.548 -0.000 0.000
1233 1234 1237 1246 3 2.874 0.582 2.092 -5.548 -0.000 0.000
1234 1237 1239 1240 3 0.628 1.883 0.000 -2.510 -0.000 0.000
1234 1237 1239 1241 3 0.628 1.883 0.000 -2.510 -0.000 0.000
1234 1237 1239 1242 3 2.301 -1.464 0.837 -1.674 -0.000 0.000
1234 1237 1246 1247 3 0.628 1.883 0.000 -2.510 -0.000 0.000
1234 1237 1246 1248 3 0.628 1.883 0.000 -2.510 -0.000 0.000
1234 1237 1246 1249 3 2.301 -1.464 0.837 -1.674 -0.000 0.000
1235 1234 1237 1238 3 0.628 1.883 0.000 -2.510 -0.000 0.000
1235 1234 1237 1239 3 0.628 1.883 0.000 -2.510 -0.000 0.000
1235 1234 1237 1246 3 0.628 1.883 0.000 -2.510 -0.000 0.000
1236 1234 1237 1238 3 0.628 1.883 0.000 -2.510 -0.000 0.000
1236 1234 1237 1239 3 0.628 1.883 0.000 -2.510 -0.000 0.000
1236 1234 1237 1246 3 0.628 1.883 0.000 -2.510 -0.000 0.000
1237 1239 1242 1243 3 0.628 1.883 0.000 -2.510 -0.000 0.000
1237 1239 1242 1244 3 0.628 1.883 0.000 -2.510 -0.000 0.000
1237 1239 1242 1245 3 0.628 1.883 0.000 -2.510 -0.000 0.000
1237 1246 1249 1250 3 0.628 1.883 0.000 -2.510 -0.000 0.000
1237 1246 1249 1251 3 0.628 1.883 0.000 -2.510 -0.000 0.000
1237 1246 1249 1252 3 2.301 -1.464 0.837 -1.674 -0.000 0.000
1238 1237 1239 1240 3 0.628 1.883 0.000 -2.510 -0.000 0.000
1238 1237 1239 1241 3 0.628 1.883 0.000 -2.510 -0.000 0.000
1238 1237 1239 1242 3 0.628 1.883 0.000 -2.510 -0.000 0.000
1238 1237 1246 1247 3 0.628 1.883 0.000 -2.510 -0.000 0.000
1238 1237 1246 1248 3 0.628 1.883 0.000 -2.510 -0.000 0.000
1238 1237 1246 1249 3 0.628 1.883 0.000 -2.510 -0.000 0.000
1239 1237 1246 1247 3 0.628 1.883 0.000 -2.510 -0.000 0.000
1239 1237 1246 1248 3 0.628 1.883 0.000 -2.510 -0.000 0.000
1239 1237 1246 1249 3 2.301 -1.464 0.837 -1.674 -0.000 0.000
1246 1237 1239 1240 3 0.628 1.883 0.000 -2.510 -0.000 0.000
1246 1237 1239 1241 3 0.628 1.883 0.000 -2.510 -0.000 0.000
1246 1237 1239 1242 3 2.301 -1.464 0.837 -1.674 -0.000 0.000
1240 1239 1242 1243 3 0.628 1.883 0.000 -2.510 -0.000 0.000
1240 1239 1242 1244 3 0.628 1.883 0.000 -2.510 -0.000 0.000
1240 1239 1242 1245 3 0.628 1.883 0.000 -2.510 -0.000 0.000
1241 1239 1242 1243 3 0.628 1.883 0.000 -2.510 -0.000 0.000
1241 1239 1242 1244 3 0.628 1.883 0.000 -2.510 -0.000 0.000
1241 1239 1242 1245 3 0.628 1.883 0.000 -2.510 -0.000 0.000
1246 1249 1252 1253 3 0.628 1.883 0.000 -2.510 -0.000 0.000
1246 1249 1252 1254 3 0.628 1.883 0.000 -2.510 -0.000 0.000
1246 1249 1252 1255 3 2.301 -1.464 0.837 -1.674 -0.000 0.000
1247 1246 1249 1250 3 0.628 1.883 0.000 -2.510 -0.000 0.000
1247 1246 1249 1251 3 0.628 1.883 0.000 -2.510 -0.000 0.000
1247 1246 1249 1252 3 0.628 1.883 0.000 -2.510 -0.000 0.000
1248 1246 1249 1250 3 0.628 1.883 0.000 -2.510 -0.000 0.000
1248 1246 1249 1251 3 0.628 1.883 0.000 -2.510 -0.000 0.000
1248 1246 1249 1252 3 0.628 1.883 0.000 -2.510 -0.000 0.000
1249 1252 1255 1256 3 0.628 1.883 0.000 -2.510 -0.000 0.000
1249 1252 1255 1257 3 0.628 1.883 0.000 -2.510 -0.000 0.000
1249 1252 1255 1258 3 0.628 1.883 0.000 -2.510 -0.000 0.000
1250 1249 1252 1253 3 0.628 1.883 0.000 -2.510 -0.000 0.000
1250 1249 1252 1254 3 0.628 1.883 0.000 -2.510 -0.000 0.000
1250 1249 1252 1255 3 0.628 1.883 0.000 -2.510 -0.000 0.000
1251 1249 1252 1253 3 0.628 1.883 0.000 -2.510 -0.000 0.000
1251 1249 1252 1254 3 0.628 1.883 0.000 -2.510 -0.000 0.000
1251 1249 1252 1255 3 0.628 1.883 0.000 -2.510 -0.000 0.000
1253 1252 1255 1256 3 0.628 1.883 0.000 -2.510 -0.000 0.000
1253 1252 1255 1257 3 0.628 1.883 0.000 -2.510 -0.000 0.000
1253 1252 1255 1258 3 0.628 1.883 0.000 -2.510 -0.000 0.000
1254 1252 1255 1256 3 0.628 1.883 0.000 -2.510 -0.000 0.000
1254 1252 1255 1257 3 0.628 1.883 0.000 -2.510 -0.000 0.000
1254 1252 1255 1258 3 0.628 1.883 0.000 -2.510 -0.000 0.000
1259 1260 1263 1264 3 -0.778 -2.335 0.000 3.113 -0.000 0.000
1259 1260 1263 1267 3 -0.778 -2.335 0.000 3.113 -0.000 0.000
1260 1263 1264 1265 3 58.576 0.000 -58.576 -0.000 -0.000 0.000
1260 1263 1264 1266 3 58.576 0.000 -58.576 -0.000 -0.000 0.000
1260 1263 1264 1311 3 2.928800 -1.464400 0.209200 -1.673600 0.000000 0.000000
1260 1263 1267 1268 3 1.789 -5.052 -0.962 4.226 -0.000 0.000
1260 1263 1267 1269 3 1.789 -5.052 -0.962 4.226 -0.000 0.000
1261 1260 1263 1264 3 -0.778 -2.335 0.000 3.113 -0.000 0.000
1261 1260 1263 1267 3 -0.778 -2.335 0.000 3.113 -0.000 0.000
1262 1260 1263 1264 3 -0.778 -2.335 0.000 3.113 -0.000 0.000
1262 1260 1263 1267 3 -0.778 -2.335 0.000 3.113 -0.000 0.000
1264 1260 1263 1267 4 180.000 10.460 2
1263 1264 1311 1308 3 2.928800 -1.464400 0.209200 -1.673600 0.000000 0.000000
1263 1264 1311 1312 3 2.928800 -1.464400 0.209200 -1.673600 0.000000 0.000000
1263 1264 1311 1315 3 2.928800 -1.464400 0.209200 -1.673600 0.000000 0.000000
1263 1267 1269 1270 3 31.206 -9.768 -21.439 -0.000 -0.000 0.000
1264 1263 1267 1268 3 30.334 -5.230 -25.104 -0.000 -0.000 0.000
1264 1263 1267 1269 3 -5.858 -6.694 12.552 -0.000 -0.000 0.000
1265 1263 1264 1266 4 180.000 10.460 2
1267 1263 1264 1265 3 58.576 0.000 -58.576 -0.000 -0.000 0.000
1267 1263 1264 1266 3 58.576 0.000 -58.576 -0.000 -0.000 0.000
1267 1263 1264 1311 3 2.928800 -1.464400 0.209200 -1.673600 0.000000 0.000000
1268 1263 1267 1269 4 180.000 43.932 2
1264 1311 1312 1313 3 0.627600 1.882800 0.000000 -2.510400 0.000000 0.000000
1264 1311 1312 1314 3 0.627600 1.882800 0.000000 -2.510400 0.000000 0.000000
1264 1311 1312 1377 3 2.928800 -1.464400 0.209200 -1.673600 0.000000 0.000000
1264 1311 1315 1316 3 2.874410 0.581580 2.092000 -5.547990 0.000000 0.000000
1264 1311 1315 1317 3 2.874410 0.581580 2.092000 -5.547990 0.000000 0.000000
1265 1264 1311 1308 3 0.627600 1.882800 0.000000 -2.510400 0.000000 0.000000
1265 1264 1311 1312 3 0.627600 1.882800 0.000000 -2.510400 0.000000 0.000000
1265 1264 1311 1315 3 0.627600 1.882800 0.000000 -2.510400 0.000000 0.000000
1266 1264 1311 1308 3 0.627600 1.882800 0.000000 -2.510400 0.000000 0.000000
1266 1264 1311 1312 3 0.627600 1.882800 0.000000 -2.510400 0.000000 0.000000
1266 1264 1311 1315 3 0.627600 1.882800 0.000000 -2.510400 0.000000 0.000000
1307 1308 1311 1264 3 0.627600 1.882800 0.000000 -2.510400 0.000000 0.000000
1309 1308 1311 1264 3 0.627600 1.882800 0.000000 -2.510400 0.000000 0.000000
1310 1308 1311 1264 3 0.627600 1.882800 0.000000 -2.510400 0.000000 0.000000
1267 1269 1270 1271 3 0.414 1.243 0.000 -1.657 -0.000 0.000
1267 1269 1270 1272 3 0.414 1.243 0.000 -1.657 -0.000 0.000
1267 1269 1270 1273 3 -2.197 5.201 0.527 -3.531 -0.000 0.000
1268 1267 1269 1270 3 21.439 0.000 -21.439 -0.000 -0.000 0.000
1269 1270 1273 1274 3 0.979 2.937 0.000 -3.916 -0.000 0.000
1269 1270 1273 1275 3 0.979 2.937 0.000 -3.916 -0.000 0.000
1269 1270 1273 1276 3 2.874 0.582 2.092 -5.548 -0.000 0.000
1270 1273 1276 1277 3 0.628 1.883 0.000 -2.510 -0.000 0.000
1270 1273 1276 1278 3 0.628 1.883 0.000 -2.510 -0.000 0.000
1270 1273 1276 1279 3 2.301 -1.464 0.837 -1.674 -0.000 0.000
1271 1270 1273 1274 3 0.628 1.883 0.000 -2.510 -0.000 0.000
1271 1270 1273 1275 3 0.628 1.883 0.000 -2.510 -0.000 0.000
1271 1270 1273 1276 3 0.628 1.883 0.000 -2.510 -0.000 0.000
1272 1270 1273 1274 3 0.628 1.883 0.000 -2.510 -0.000 0.000
1272 1270 1273 1275 3 0.628 1.883 0.000 -2.510 -0.000 0.000
1272 1270 1273 1276 3 0.628 1.883 0.000 -2.510 -0.000 0.000
1273 1276 1279 1280 3 0.628 1.883 0.000 -2.510 -0.000 0.000
1273 1276 1279 1281 3 0.628 1.883 0.000 -2.510 -0.000 0.000
1273 1276 1279 1282 3 2.301 -1.464 0.837 -1.674 -0.000 0.000
1274 1273 1276 1277 3 0.628 1.883 0.000 -2.510 -0.000 0.000
1274 1273 1276 1278 3 0.628 1.883 0.000 -2.510 -0.000 0.000
1274 1273 1276 1279 3 0.628 1.883 0.000 -2.510 -0.000 0.000
1275 1273 1276 1277 3 0.628 1.883 0.000 -2.510 -0.000 0.000
1275 1273 1276 1278 3 0.628 1.883 0.000 -2.510 -0.000 0.000
1275 1273 1276 1279 3 0.628 1.883 0.000 -2.510 -0.000 0.000
1276 1279 1282 1283 3 0.628 1.883 0.000 -2.510 -0.000 0.000
1276 1279 1282 1284 3 0.628 1.883 0.000 -2.510 -0.000 0.000
1276 1279 1282 1285 3 2.301 -1.464 0.837 -1.674 -0.000 0.000
1277 1276 1279 1280 3 0.628 1.883 0.000 -2.510 -0.000 0.000
1277 1276 1279 1281 3 0.628 1.883 0.000 -2.510 -0.000 0.000
1277 1276 1279 1282 3 0.628 1.883 0.000 -2.510 -0.000 0.000
1278 1276 1279 1280 3 0.628 1.883 0.000 -2.510 -0.000 0.000
1278 1276 1279 1281 3 0.628 1.883 0.000 -2.510 -0.000 0.000
1278 1276 1279 1282 3 0.628 1.883 0.000 -2.510 -0.000 0.000
1279 1282 1285 1286 3 0.628 1.883 0.000 -2.510 -0.000 0.000
1279 1282 1285 1287 3 0.628 1.883 0.000 -2.510 -0.000 0.000
1279 1282 1285 1288 3 2.301 -1.464 0.837 -1.674 -0.000 0.000
1280 1279 1282 1283 3 0.628 1.883 0.000 -2.510 -0.000 0.000
1280 1279 1282 1284 3 0.628 1.883 0.000 -2.510 -0.000 0.000
1280 1279 1282 1285 3 0.628 1.883 0.000 -2.510 -0.000 0.000
1281 1279 1282 1283 3 0.628 1.883 0.000 -2.510 -0.000 0.000
1281 1279 1282 1284 3 0.628 1.883 0.000 -2.510 -0.000 0.000
1281 1279 1282 1285 3 0.628 1.883 0.000 -2.510 -0.000 0.000
1282 1285 1288 1289 3 0.628 1.883 0.000 -2.510 -0.000 0.000
1282 1285 1288 1290 3 0.628 1.883 0.000 -2.510 -0.000 0.000
1282 1285 1288 1291 3 2.301 -1.464 0.837 -1.674 -0.000 0.000
1283 1282 1285 1286 3 0.628 1.883 0.000 -2.510 -0.000 0.000
1283 1282 1285 1287 3 0.628 1.883 0.000 -2.510 -0.000 0.000
1283 1282 1285 1288 3 0.628 1.883 0.000 -2.510 -0.000 0.000
1284 1282 1285 1286 3 0.628 1.883 0.000 -2.510 -0.000 0.000
1284 1282 1285 1287 3 0.628 1.883 0.000 -2.510 -0.000 0.000
1284 1282 1285 1288 3 0.628 1.883 0.000 -2.510 -0.000 0.000
1285 1288 1291 1292 3 0.628 1.883 0.000 -2.510 -0.000 0.000
1285 1288 1291 1293 3 0.628 1.883 0.000 -2.510 -0.000 0.000
1285 1288 1291 1294 3 2.301 -1.464 0.837 -1.674 -0.000 0.000
1286 1285 1288 1289 3 0.628 1.883 0.000 -2.510 -0.000 0.000
1286 1285 1288 1290 3 0.628 1.883 0.000 -2.510 -0.000 0.000
1286 1285 1288 1291 3 0.628 1.883 0.000 -2.510 -0.000 0.000
1287 1285 1288 1289 3 0.628 1.883 0.000 -2.510 -0.000 0.000
1287 1285 1288 1290 3 0.628 1.883 0.000 -2.510 -0.000 0.000
1287 1285 1288 1291 3 0.628 1.883 0.000 -2.510 -0.000 0.000
1288 1291 1294 1295 3 0.628 1.883 0.000 -2.510 -0.000 0.000
1288 1291 1294 1296 3 0.628 1.883 0.000 -2.510 -0.000 0.000
1288 1291 1294 1297 3 2.301 -1.464 0.837 -1.674 -0.000 0.000
1289 1288 1291 1292 3 0.628 1.883 0.000 -2.510 -0.000 0.000
1289 1288 1291 1293 3 0.628 1.883 0.000 -2.510 -0.000 0.000
1289 1288 1291 1294 3 0.628 1.883 0.000 -2.510 -0.000 0.000
1290 1288 1291 1292 3 0.628 1.883 0.000 -2.510 -0.000 0.000
1290 1288 1291 1293 3 0.628 1.883 0.000 -2.510 -0.000 0.000
1290 1288 1291 1294 3 0.628 1.883 0.000 -2.510 -0.000 0.000
1291 1294 1297 1298 3 0.628 1.883 0.000 -2.510 -0.000 0.000
1291 1294 1297 1299 3 0.628 1.883 0.000 -2.510 -0.000 0.000
1291 1294 1297 1300 3 2.301 -1.464 0.837 -1.674 -0.000 0.000
1292 1291 1294 1295 3 0.628 1.883 0.000 -2.510 -0.000 0.000
1292 1291 1294 1296 3 0.628 1.883 0.000 -2.510 -0.000 0.000
1292 1291 1294 1297 3 0.628 1.883 0.000 -2.510 -0.000 0.000
1293 1291 1294 1295 3 0.628 1.883 0.000 -2.510 -0.000 0.000
1293 1291 1294 1296 3 0.628 1.883 0.000 -2.510 -0.000 0.000
1293 1291 1294 1297 3 0.628 1.883 0.000 -2.510 -0.000 0.000
1294 1297 1300 1301 3 0.628 1.883 0.000 -2.510 -0.000 0.000
1294 1297 1300 1302 3 0.628 1.883 0.000 -2.510 -0.000 0.000
1294 1297 1300 1303 3 2.301 -1.464 0.837 -1.674 -0.000 0.000
1295 1294 1297 1298 3 0.628 1.883 0.000 -2.510 -0.000 0.000
1295 1294 1297 1299 3 0.628 1.883 0.000 -2.510 -0.000 0.000
1295 1294 1297 1300 3 0.628 1.883 0.000 -2.510 -0.000 0.000
1296 1294 1297 1298 3 0.628 1.883 0.000 -2.510 -0.000 0.000
1296 1294 1297 1299 3 0.628 1.883 0.000 -2.510 -0.000 0.000
1296 1294 1297 1300 3 0.628 1.883 0.000 -2.510 -0.000 0.000
1297 1300 1303 1304 3 0.628 1.883 0.000 -2.510 -0.000 0.000
1297 1300 1303 1305 3 0.628 1.883 0.000 -2.510 -0.000 0.000
1297 1300 1303 1306 3 0.628 1.883 0.000 -2.510 -0.000 0.000
1298 1297 1300 1301 3 0.628 1.883 0.000 -2.510 -0.000 0.000
1298 1297 1300 1302 3 0.628 1.883 0.000 -2.510 -0.000 0.000
1298 1297 1300 1303 3 0.628 1.883 0.000 -2.510 -0.000 0.000
1299 1297 1300 1301 3 0.628 1.883 0.000 -2.510 -0.000 0.000
1299 1297 1300 1302 3 0.628 1.883 0.000 -2.510 -0.000 0.000
1299 1297 1300 1303 3 0.628 1.883 0.000 -2.510 -0.000 0.000
1301 1300 1303 1304 3 0.628 1.883 0.000 -2.510 -0.000 0.000
1301 1300 1303 1305 3 0.628 1.883 0.000 -2.510 -0.000 0.000
1301 1300 1303 1306 3 0.628 1.883 0.000 -2.510 -0.000 0.000
1302 1300 1303 1304 3 0.628 1.883 0.000 -2.510 -0.000 0.000
1302 1300 1303 1305 3 0.628 1.883 0.000 -2.510 -0.000 0.000
1302 1300 1303 1306 3 0.628 1.883 0.000 -2.510 -0.000 0.000
1307 1308 1311 1312 3 -0.778 -2.335 0.000 3.113 -0.000 0.000
1307 1308 1311 1315 3 -0.778 -2.335 0.000 3.113 -0.000 0.000
1308 1311 1312 1313 3 58.576 0.000 -58.576 -0.000 -0.000 0.000
1308 1311 1312 1314 3 58.576 0.000 -58.576 -0.000 -0.000 0.000
1308 1311 1312 1377 3 2.928800 -1.464400 0.209200 -1.673600 0.000000 0.000000
1308 1311 1315 1316 3 1.789 -5.052 -0.962 4.226 -0.000 0.000
1308 1311 1315 1317 3 1.789 -5.052 -0.962 4.226 -0.000 0.000
1309 1308 1311 1312 3 -0.778 -2.335 0.000 3.113 -0.000 0.000
1309 1308 1311 1315 3 -0.778 -2.335 0.000 3.113 -0.000 0.000
1310 1308 1311 1312 3 -0.778 -2.335 0.000 3.113 -0.000 0.000
1310 1308 1311 1315 3 -0.778 -2.335 0.000 3.113 -0.000 0.000
1312 1308 1311 1315 4 180.000 10.460 2
1311 1312 1377 1374 3 2.928800 -1.464400 0.209200 -1.673600 0.000000 0.000000
1311 1312 1377 1378 3 2.928800 -1.464400 0.209200 -1.673600 0.000000 0.000000
1311 1312 1377 1381 3 2.928800 -1.464400 0.209200 -1.673600 0.000000 0.000000
1311 1315 1317 1318 3 31.206 -9.768 -21.439 -0.000 -0.000 0.000
1312 1311 1315 1316 3 30.334 -5.230 -25.104 -0.000 -0.000 0.000
1312 1311 1315 1317 3 -5.858 -6.694 12.552 -0.000 -0.000 0.000
1313 1311 1312 1314 4 180.000 10.460 2
1315 1311 1312 1313 3 58.576 0.000 -58.576 -0.000 -0.000 0.000
1315 1311 1312 1314 3 58.576 0.000 -58.576 -0.000 -0.000 0.000
1315 1311 1312 1377 3 2.928800 -1.464400 0.209200 -1.673600 0.000000 0.000000
1316 1311 1315 1317 4 180.000 43.932 2
1312 1377 1378 1379 3 0.627600 1.882800 0.000000 -2.510400 0.000000 0.000000
1312 1377 1378 1380 3 0.627600 1.882800 0.000000 -2.510400 0.000000 0.000000
1312 1377 1378 1413 3 2.928800 -1.464400 0.209200 -1.673600 0.000000 0.000000
1312 1377 1381 1382 3 2.874410 0.581580 2.092000 -5.547990 0.000000 0.000000
1312 1377 1381 1383 3 2.874410 0.581580 2.092000 -5.547990 0.000000 0.000000
1313 1312 1377 1374 3 0.627600 1.882800 0.000000 -2.510400 0.000000 0.000000
1313 1312 1377 1378 3 0.627600 1.882800 0.000000 -2.510400 0.000000 0.000000
1313 1312 1377 1381 3 0.627600 1.882800 0.000000 -2.510400 0.000000 0.000000
1314 1312 1377 1374 3 0.627600 1.882800 0.000000 -2.510400 0.000000 0.000000
1314 1312 1377 1378 3 0.627600 1.882800 0.000000 -2.510400 0.000000 0.000000
1314 1312 1377 1381 3 0.627600 1.882800 0.000000 -2.510400 0.000000 0.000000
1373 1374 1377 1312 3 0.627600 1.882800 0.000000 -2.510400 0.000000 0.000000
1375 1374 1377 1312 3 0.627600 1.882800 0.000000 -2.510400 0.000000 0.000000
1376 1374 1377 1312 3 0.627600 1.882800 0.000000 -2.510400 0.000000 0.000000
1315 1317 1318 1319 3 0.414 1.243 0.000 -1.657 -0.000 0.000
1315 1317 1318 1320 3 0.414 1.243 0.000 -1.657 -0.000 0.000
1315 1317 1318 1321 3 -2.197 5.201 0.527 -3.531 -0.000 0.000
1316 1315 1317 1318 3 21.439 0.000 -21.439 -0.000 -0.000 0.000
1317 1318 1321 1322 3 0.979 2.937 0.000 -3.916 -0.000 0.000
1317 1318 1321 1323 3 0.979 2.937 0.000 -3.916 -0.000 0.000
1317 1318 1321 1324 3 2.874 0.582 2.092 -5.548 -0.000 0.000
1318 1321 1324 1325 3 0.628 1.883 0.000 -2.510 -0.000 0.000
1318 1321 1324 1326 3 0.628 1.883 0.000 -2.510 -0.000 0.000
1318 1321 1324 1327 3 2.301 -1.464 0.837 -1.674 -0.000 0.000
1319 1318 1321 1322 3 0.628 1.883 0.000 -2.510 -0.000 0.000
1319 1318 1321 1323 3 0.628 1.883 0.000 -2.510 -0.000 0.000
1319 1318 1321 1324 3 0.628 1.883 0.000 -2.510 -0.000 0.000
1320 1318 1321 1322 3 0.628 1.883 0.000 -2.510 -0.000 0.000
1320 1318 1321 1323 3 0.628 1.883 0.000 -2.510 -0.000 0.000
1320 1318 1321 1324 3 0.628 1.883 0.000 -2.510 -0.000 0.000
1321 1324 1327 1328 3 0.628 1.883 0.000 -2.510 -0.000 0.000
1321 1324 1327 1329 3 0.628 1.883 0.000 -2.510 -0.000 0.000
1321 1324 1327 1330 3 2.301 -1.464 0.837 -1.674 -0.000 0.000
1322 1321 1324 1325 3 0.628 1.883 0.000 -2.510 -0.000 0.000
1322 1321 1324 1326 3 0.628 1.883 0.000 -2.510 -0.000 0.000
1322 1321 1324 1327 3 0.628 1.883 0.000 -2.510 -0.000 0.000
1323 1321 1324 1325 3 0.628 1.883 0.000 -2.510 -0.000 0.000
1323 1321 1324 1326 3 0.628 1.883 0.000 -2.510 -0.000 0.000
1323 1321 1324 1327 3 0.628 1.883 0.000 -2.510 -0.000 0.000
1324 1327 1330 1331 3 0.628 1.883 0.000 -2.510 -0.000 0.000
1324 1327 1330 1332 3 0.628 1.883 0.000 -2.510 -0.000 0.000
1324 1327 1330 1333 3 2.301 -1.464 0.837 -1.674 -0.000 0.000
1325 1324 1327 1328 3 0.628 1.883 0.000 -2.510 -0.000 0.000
1325 1324 1327 1329 3 0.628 1.883 0.000 -2.510 -0.000 0.000
1325 1324 1327 1330 3 0.628 1.883 0.000 -2.510 -0.000 0.000
1326 1324 1327 1328 3 0.628 1.883 0.000 -2.510 -0.000 0.000
1326 1324 1327 1329 3 0.628 1.883 0.000 -2.510 -0.000 0.000
1326 1324 1327 1330 3 0.628 1.883 0.000 -2.510 -0.000 0.000
1327 1330 1333 1334 3 0.628 1.883 0.000 -2.510 -0.000 0.000
1327 1330 1333 1335 3 0.628 1.883 0.000 -2.510 -0.000 0.000
1327 1330 1333 1336 3 2.301 -1.464 0.837 -1.674 -0.000 0.000
1328 1327 1330 1331 3 0.628 1.883 0.000 -2.510 -0.000 0.000
1328 1327 1330 1332 3 0.628 1.883 0.000 -2.510 -0.000 0.000
1328 1327 1330 1333 3 0.628 1.883 0.000 -2.510 -0.000 0.000
1329 1327 1330 1331 3 0.628 1.883 0.000 -2.510 -0.000 0.000
1329 1327 1330 1332 3 0.628 1.883 0.000 -2.510 -0.000 0.000
1329 1327 1330 1333 3 0.628 1.883 0.000 -2.510 -0.000 0.000
1330 1333 1336 1337 3 0.628 1.883 0.000 -2.510 -0.000 0.000
1330 1333 1336 1338 3 0.628 1.883 0.000 -2.510 -0.000 0.000
1330 1333 1336 1339 3 2.301 -1.464 0.837 -1.674 -0.000 0.000
1331 1330 1333 1334 3 0.628 1.883 0.000 -2.510 -0.000 0.000
1331 1330 1333 1335 3 0.628 1.883 0.000 -2.510 -0.000 0.000
1331 1330 1333 1336 3 0.628 1.883 0.000 -2.510 -0.000 0.000
1332 1330 1333 1334 3 0.628 1.883 0.000 -2.510 -0.000 0.000
1332 1330 1333 1335 3 0.628 1.883 0.000 -2.510 -0.000 0.000
1332 1330 1333 1336 3 0.628 1.883 0.000 -2.510 -0.000 0.000
1333 1336 1339 1340 3 0.628 1.883 0.000 -2.510 -0.000 0.000
1333 1336 1339 1341 3 0.628 1.883 0.000 -2.510 -0.000 0.000
1333 1336 1339 1342 3 2.301 -1.464 0.837 -1.674 -0.000 0.000
1334 1333 1336 1337 3 0.628 1.883 0.000 -2.510 -0.000 0.000
1334 1333 1336 1338 3 0.628 1.883 0.000 -2.510 -0.000 0.000
1334 1333 1336 1339 3 0.628 1.883 0.000 -2.510 -0.000 0.000
1335 1333 1336 1337 3 0.628 1.883 0.000 -2.510 -0.000 0.000
1335 1333 1336 1338 3 0.628 1.883 0.000 -2.510 -0.000 0.000
1335 1333 1336 1339 3 0.628 1.883 0.000 -2.510 -0.000 0.000
1336 1339 1342 1343 3 0.628 1.883 0.000 -2.510 -0.000 0.000
1336 1339 1342 1344 3 0.628 1.883 0.000 -2.510 -0.000 0.000
1336 1339 1342 1345 3 2.301 -1.464 0.837 -1.674 -0.000 0.000
1337 1336 1339 1340 3 0.628 1.883 0.000 -2.510 -0.000 0.000
1337 1336 1339 1341 3 0.628 1.883 0.000 -2.510 -0.000 0.000
1337 1336 1339 1342 3 0.628 1.883 0.000 -2.510 -0.000 0.000
1338 1336 1339 1340 3 0.628 1.883 0.000 -2.510 -0.000 0.000
1338 1336 1339 1341 3 0.628 1.883 0.000 -2.510 -0.000 0.000
1338 1336 1339 1342 3 0.628 1.883 0.000 -2.510 -0.000 0.000
1339 1342 1345 1346 3 0.628 1.883 0.000 -2.510 -0.000 0.000
1339 1342 1345 1347 3 0.628 1.883 0.000 -2.510 -0.000 0.000
1339 1342 1345 1348 3 2.301 -1.464 0.837 -1.674 -0.000 0.000
1340 1339 1342 1343 3 0.628 1.883 0.000 -2.510 -0.000 0.000
1340 1339 1342 1344 3 0.628 1.883 0.000 -2.510 -0.000 0.000
1340 1339 1342 1345 3 0.628 1.883 0.000 -2.510 -0.000 0.000
1341 1339 1342 1343 3 0.628 1.883 0.000 -2.510 -0.000 0.000
1341 1339 1342 1344 3 0.628 1.883 0.000 -2.510 -0.000 0.000
1341 1339 1342 1345 3 0.628 1.883 0.000 -2.510 -0.000 0.000
1342 1345 1348 1349 3 0.628 1.883 0.000 -2.510 -0.000 0.000
1342 1345 1348 1350 3 0.628 1.883 0.000 -2.510 -0.000 0.000
1342 1345 1348 1351 3 2.301 -1.464 0.837 -1.674 -0.000 0.000
1343 1342 1345 1346 3 0.628 1.883 0.000 -2.510 -0.000 0.000
1343 1342 1345 1347 3 0.628 1.883 0.000 -2.510 -0.000 0.000
1343 1342 1345 1348 3 0.628 1.883 0.000 -2.510 -0.000 0.000
1344 1342 1345 1346 3 0.628 1.883 0.000 -2.510 -0.000 0.000
1344 1342 1345 1347 3 0.628 1.883 0.000 -2.510 -0.000 0.000
1344 1342 1345 1348 3 0.628 1.883 0.000 -2.510 -0.000 0.000
1345 1348 1351 1352 3 0.628 1.883 0.000 -2.510 -0.000 0.000
1345 1348 1351 1353 3 0.628 1.883 0.000 -2.510 -0.000 0.000
1345 1348 1351 1354 3 2.301 -1.464 0.837 -1.674 -0.000 0.000
1346 1345 1348 1349 3 0.628 1.883 0.000 -2.510 -0.000 0.000
1346 1345 1348 1350 3 0.628 1.883 0.000 -2.510 -0.000 0.000
1346 1345 1348 1351 3 0.628 1.883 0.000 -2.510 -0.000 0.000
1347 1345 1348 1349 3 0.628 1.883 0.000 -2.510 -0.000 0.000
1347 1345 1348 1350 3 0.628 1.883 0.000 -2.510 -0.000 0.000
1347 1345 1348 1351 3 0.628 1.883 0.000 -2.510 -0.000 0.000
1348 1351 1354 1355 3 0.628 1.883 0.000 -2.510 -0.000 0.000
1348 1351 1354 1356 3 0.628 1.883 0.000 -2.510 -0.000 0.000
1348 1351 1354 1357 3 2.301 -1.464 0.837 -1.674 -0.000 0.000
1349 1348 1351 1352 3 0.628 1.883 0.000 -2.510 -0.000 0.000
1349 1348 1351 1353 3 0.628 1.883 0.000 -2.510 -0.000 0.000
1349 1348 1351 1354 3 0.628 1.883 0.000 -2.510 -0.000 0.000
1350 1348 1351 1352 3 0.628 1.883 0.000 -2.510 -0.000 0.000
1350 1348 1351 1353 3 0.628 1.883 0.000 -2.510 -0.000 0.000
1350 1348 1351 1354 3 0.628 1.883 0.000 -2.510 -0.000 0.000
1351 1354 1357 1358 3 0.628 1.883 0.000 -2.510 -0.000 0.000
1351 1354 1357 1359 3 0.628 1.883 0.000 -2.510 -0.000 0.000
1351 1354 1357 1360 3 2.301 -1.464 0.837 -1.674 -0.000 0.000
1352 1351 1354 1355 3 0.628 1.883 0.000 -2.510 -0.000 0.000
1352 1351 1354 1356 3 0.628 1.883 0.000 -2.510 -0.000 0.000
1352 1351 1354 1357 3 0.628 1.883 0.000 -2.510 -0.000 0.000
1353 1351 1354 1355 3 0.628 1.883 0.000 -2.510 -0.000 0.000
1353 1351 1354 1356 3 0.628 1.883 0.000 -2.510 -0.000 0.000
1353 1351 1354 1357 3 0.628 1.883 0.000 -2.510 -0.000 0.000
1354 1357 1360 1361 3 0.628 1.883 0.000 -2.510 -0.000 0.000
1354 1357 1360 1362 3 0.628 1.883 0.000 -2.510 -0.000 0.000
1354 1357 1360 1363 3 2.301 -1.464 0.837 -1.674 -0.000 0.000
1355 1354 1357 1358 3 0.628 1.883 0.000 -2.510 -0.000 0.000
1355 1354 1357 1359 3 0.628 1.883 0.000 -2.510 -0.000 0.000
1355 1354 1357 1360 3 0.628 1.883 0.000 -2.510 -0.000 0.000
1356 1354 1357 1358 3 0.628 1.883 0.000 -2.510 -0.000 0.000
1356 1354 1357 1359 3 0.628 1.883 0.000 -2.510 -0.000 0.000
1356 1354 1357 1360 3 0.628 1.883 0.000 -2.510 -0.000 0.000
1357 1360 1363 1364 3 0.628 1.883 0.000 -2.510 -0.000 0.000
1357 1360 1363 1365 3 0.628 1.883 0.000 -2.510 -0.000 0.000
1357 1360 1363 1366 3 2.301 -1.464 0.837 -1.674 -0.000 0.000
1358 1357 1360 1361 3 0.628 1.883 0.000 -2.510 -0.000 0.000
1358 1357 1360 1362 3 0.628 1.883 0.000 -2.510 -0.000 0.000
1358 1357 1360 1363 3 0.628 1.883 0.000 -2.510 -0.000 0.000
1359 1357 1360 1361 3 0.628 1.883 0.000 -2.510 -0.000 0.000
1359 1357 1360 1362 3 0.628 1.883 0.000 -2.510 -0.000 0.000
1359 1357 1360 1363 3 0.628 1.883 0.000 -2.510 -0.000 0.000
1360 1363 1366 1367 3 0.628 1.883 0.000 -2.510 -0.000 0.000
1360 1363 1366 1368 3 0.628 1.883 0.000 -2.510 -0.000 0.000
1360 1363 1366 1369 3 2.301 -1.464 0.837 -1.674 -0.000 0.000
1361 1360 1363 1364 3 0.628 1.883 0.000 -2.510 -0.000 0.000
1361 1360 1363 1365 3 0.628 1.883 0.000 -2.510 -0.000 0.000
1361 1360 1363 1366 3 0.628 1.883 0.000 -2.510 -0.000 0.000
1362 1360 1363 1364 3 0.628 1.883 0.000 -2.510 -0.000 0.000
1362 1360 1363 1365 3 0.628 1.883 0.000 -2.510 -0.000 0.000
1362 1360 1363 1366 3 0.628 1.883 0.000 -2.510 -0.000 0.000
1363 1366 1369 1370 3 0.628 1.883 0.000 -2.510 -0.000 0.000
1363 1366 1369 1371 3 0.628 1.883 0.000 -2.510 -0.000 0.000
1363 1366 1369 1372 3 0.628 1.883 0.000 -2.510 -0.000 0.000
1364 1363 1366 1367 3 0.628 1.883 0.000 -2.510 -0.000 0.000
1364 1363 1366 1368 3 0.628 1.883 0.000 -2.510 -0.000 0.000
1364 1363 1366 1369 3 0.628 1.883 0.000 -2.510 -0.000 0.000
1365 1363 1366 1367 3 0.628 1.883 0.000 -2.510 -0.000 0.000
1365 1363 1366 1368 3 0.628 1.883 0.000 -2.510 -0.000 0.000
1365 1363 1366 1369 3 0.628 1.883 0.000 -2.510 -0.000 0.000
1367 1366 1369 1370 3 0.628 1.883 0.000 -2.510 -0.000 0.000
1367 1366 1369 1371 3 0.628 1.883 0.000 -2.510 -0.000 0.000
1367 1366 1369 1372 3 0.628 1.883 0.000 -2.510 -0.000 0.000
1368 1366 1369 1370 3 0.628 1.883 0.000 -2.510 -0.000 0.000
1368 1366 1369 1371 3 0.628 1.883 0.000 -2.510 -0.000 0.000
1368 1366 1369 1372 3 0.628 1.883 0.000 -2.510 -0.000 0.000
1373 1374 1377 1378 3 -0.778 -2.335 0.000 3.113 -0.000 0.000
1373 1374 1377 1381 3 -0.778 -2.335 0.000 3.113 -0.000 0.000
1374 1377 1378 1379 3 58.576 0.000 -58.576 -0.000 -0.000 0.000
1374 1377 1378 1380 3 58.576 0.000 -58.576 -0.000 -0.000 0.000
1374 1377 1378 1413 3 2.928800 -1.464400 0.209200 -1.673600 0.000000 0.000000
1374 1377 1381 1382 3 1.789 -5.052 -0.962 4.226 -0.000 0.000
1374 1377 1381 1383 3 1.789 -5.052 -0.962 4.226 -0.000 0.000
1375 1374 1377 1378 3 -0.778 -2.335 0.000 3.113 -0.000 0.000
1375 1374 1377 1381 3 -0.778 -2.335 0.000 3.113 -0.000 0.000
1376 1374 1377 1378 3 -0.778 -2.335 0.000 3.113 -0.000 0.000
1376 1374 1377 1381 3 -0.778 -2.335 0.000 3.113 -0.000 0.000
1378 1374 1377 1381 4 180.000 10.460 2
1377 1378 1413 1410 3 2.928800 -1.464400 0.209200 -1.673600 0.000000 0.000000
1377 1378 1413 1414 3 2.928800 -1.464400 0.209200 -1.673600 0.000000 0.000000
1377 1378 1413 1417 3 2.928800 -1.464400 0.209200 -1.673600 0.000000 0.000000
1377 1381 1383 1384 3 31.206 -9.768 -21.439 -0.000 -0.000 0.000
1378 1377 1381 1382 3 30.334 -5.230 -25.104 -0.000 -0.000 0.000
1378 1377 1381 1383 3 -5.858 -6.694 12.552 -0.000 -0.000 0.000
1379 1377 1378 1380 4 180.000 10.460 2
1381 1377 1378 1379 3 58.576 0.000 -58.576 -0.000 -0.000 0.000
1381 1377 1378 1380 3 58.576 0.000 -58.576 -0.000 -0.000 0.000
1381 1377 1378 1413 3 2.928800 -1.464400 0.209200 -1.673600 0.000000 0.000000
1382 1377 1381 1383 4 180.000 43.932 2
1378 1413 1414 1415 3 0.627600 1.882800 0.000000 -2.510400 0.000000 0.000000
1378 1413 1414 1416 3 0.627600 1.882800 0.000000 -2.510400 0.000000 0.000000
1378 1413 1414 1461 3 2.928800 -1.464400 0.209200 -1.673600 0.000000 0.000000
1378 1413 1417 1418 3 2.874410 0.581580 2.092000 -5.547990 0.000000 0.000000
1378 1413 1417 1419 3 2.874410 0.581580 2.092000 -5.547990 0.000000 0.000000
1379 1378 1413 1410 3 0.627600 1.882800 0.000000 -2.510400 0.000000 0.000000
1379 1378 1413 1414 3 0.627600 1.882800 0.000000 -2.510400 0.000000 0.000000
1379 1378 1413 1417 3 0.627600 1.882800 0.000000 -2.510400 0.000000 0.000000
1380 1378 1413 1410 3 0.627600 1.882800 0.000000 -2.510400 0.000000 0.000000
1380 1378 1413 1414 3 0.627600 1.882800 0.000000 -2.510400 0.000000 0.000000
1380 1378 1413 1417 3 0.627600 1.882800 0.000000 -2.510400 0.000000 0.000000
1409 1410 1413 1378 3 0.627600 1.882800 0.000000 -2.510400 0.000000 0.000000
1411 1410 1413 1378 3 0.627600 1.882800 0.000000 -2.510400 0.000000 0.000000
1412 1410 1413 1378 3 0.627600 1.882800 0.000000 -2.510400 0.000000 0.000000
1381 1383 1384 1385 3 0.414 1.243 0.000 -1.657 -0.000 0.000
1381 1383 1384 1386 3 0.414 1.243 0.000 -1.657 -0.000 0.000
1381 1383 1384 1387 3 -2.197 5.201 0.527 -3.531 -0.000 0.000
1382 1381 1383 1384 3 21.439 0.000 -21.439 -0.000 -0.000 0.000
1383 1384 1387 1388 3 0.979 2.937 0.000 -3.916 -0.000 0.000
1383 1384 1387 1389 3 2.874 0.582 2.092 -5.548 -0.000 0.000
1383 1384 1387 1396 3 2.874 0.582 2.092 -5.548 -0.000 0.000
1384 1387 1389 1390 3 0.628 1.883 0.000 -2.510 -0.000 0.000
1384 1387 1389 1391 3 0.628 1.883 0.000 -2.510 -0.000 0.000
1384 1387 1389 1392 3 2.301 -1.464 0.837 -1.674 -0.000 0.000
1384 1387 1396 1397 3 0.628 1.883 0.000 -2.510 -0.000 0.000
1384 1387 1396 1398 3 0.628 1.883 0.000 -2.510 -0.000 0.000
1384 1387 1396 1399 3 2.301 -1.464 0.837 -1.674 -0.000 0.000
1385 1384 1387 1388 3 0.628 1.883 0.000 -2.510 -0.000 0.000
1385 1384 1387 1389 3 0.628 1.883 0.000 -2.510 -0.000 0.000
1385 1384 1387 1396 3 0.628 1.883 0.000 -2.510 -0.000 0.000
1386 1384 1387 1388 3 0.628 1.883 0.000 -2.510 -0.000 0.000
1386 1384 1387 1389 3 0.628 1.883 0.000 -2.510 -0.000 0.000
1386 1384 1387 1396 3 0.628 1.883 0.000 -2.510 -0.000 0.000
1387 1389 1392 1393 3 0.628 1.883 0.000 -2.510 -0.000 0.000
1387 1389 1392 1394 3 0.628 1.883 0.000 -2.510 -0.000 0.000
1387 1389 1392 1395 3 0.628 1.883 0.000 -2.510 -0.000 0.000
1387 1396 1399 1400 3 0.628 1.883 0.000 -2.510 -0.000 0.000
1387 1396 1399 1401 3 0.628 1.883 0.000 -2.510 -0.000 0.000
1387 1396 1399 1402 3 2.301 -1.464 0.837 -1.674 -0.000 0.000
1388 1387 1389 1390 3 0.628 1.883 0.000 -2.510 -0.000 0.000
1388 1387 1389 1391 3 0.628 1.883 0.000 -2.510 -0.000 0.000
1388 1387 1389 1392 3 0.628 1.883 0.000 -2.510 -0.000 0.000
1388 1387 1396 1397 3 0.628 1.883 0.000 -2.510 -0.000 0.000
1388 1387 1396 1398 3 0.628 1.883 0.000 -2.510 -0.000 0.000
1388 1387 1396 1399 3 0.628 1.883 0.000 -2.510 -0.000 0.000
1389 1387 1396 1397 3 0.628 1.883 0.000 -2.510 -0.000 0.000
1389 1387 1396 1398 3 0.628 1.883 0.000 -2.510 -0.000 0.000
1389 1387 1396 1399 3 2.301 -1.464 0.837 -1.674 -0.000 0.000
1396 1387 1389 1390 3 0.628 1.883 0.000 -2.510 -0.000 0.000
1396 1387 1389 1391 3 0.628 1.883 0.000 -2.510 -0.000 0.000
1396 1387 1389 1392 3 2.301 -1.464 0.837 -1.674 -0.000 0.000
1390 1389 1392 1393 3 0.628 1.883 0.000 -2.510 -0.000 0.000
1390 1389 1392 1394 3 0.628 1.883 0.000 -2.510 -0.000 0.000
1390 1389 1392 1395 3 0.628 1.883 0.000 -2.510 -0.000 0.000
1391 1389 1392 1393 3 0.628 1.883 0.000 -2.510 -0.000 0.000
1391 1389 1392 1394 3 0.628 1.883 0.000 -2.510 -0.000 0.000
1391 1389 1392 1395 3 0.628 1.883 0.000 -2.510 -0.000 0.000
1396 1399 1402 1403 3 0.628 1.883 0.000 -2.510 -0.000 0.000
1396 1399 1402 1404 3 0.628 1.883 0.000 -2.510 -0.000 0.000
1396 1399 1402 1405 3 2.301 -1.464 0.837 -1.674 -0.000 0.000
1397 1396 1399 1400 3 0.628 1.883 0.000 -2.510 -0.000 0.000
1397 1396 1399 1401 3 0.628 1.883 0.000 -2.510 -0.000 0.000
1397 1396 1399 1402 3 0.628 1.883 0.000 -2.510 -0.000 0.000
1398 1396 1399 1400 3 0.628 1.883 0.000 -2.510 -0.000 0.000
1398 1396 1399 1401 3 0.628 1.883 0.000 -2.510 -0.000 0.000
1398 1396 1399 1402 3 0.628 1.883 0.000 -2.510 -0.000 0.000
1399 1402 1405 1406 3 0.628 1.883 0.000 -2.510 -0.000 0.000
1399 1402 1405 1407 3 0.628 1.883 0.000 -2.510 -0.000 0.000
1399 1402 1405 1408 3 0.628 1.883 0.000 -2.510 -0.000 0.000
1400 1399 1402 1403 3 0.628 1.883 0.000 -2.510 -0.000 0.000
1400 1399 1402 1404 3 0.628 1.883 0.000 -2.510 -0.000 0.000
1400 1399 1402 1405 3 0.628 1.883 0.000 -2.510 -0.000 0.000
1401 1399 1402 1403 3 0.628 1.883 0.000 -2.510 -0.000 0.000
1401 1399 1402 1404 3 0.628 1.883 0.000 -2.510 -0.000 0.000
1401 1399 1402 1405 3 0.628 1.883 0.000 -2.510 -0.000 0.000
1403 1402 1405 1406 3 0.628 1.883 0.000 -2.510 -0.000 0.000
1403 1402 1405 1407 3 0.628 1.883 0.000 -2.510 -0.000 0.000
1403 1402 1405 1408 3 0.628 1.883 0.000 -2.510 -0.000 0.000
1404 1402 1405 1406 3 0.628 1.883 0.000 -2.510 -0.000 0.000
1404 1402 1405 1407 3 0.628 1.883 0.000 -2.510 -0.000 0.000
1404 1402 1405 1408 3 0.628 1.883 0.000 -2.510 -0.000 0.000
1409 1410 1413 1414 3 -0.778 -2.335 0.000 3.113 -0.000 0.000
1409 1410 1413 1417 3 -0.778 -2.335 0.000 3.113 -0.000 0.000
1410 1413 1414 1415 3 58.576 0.000 -58.576 -0.000 -0.000 0.000
1410 1413 1414 1416 3 58.576 0.000 -58.576 -0.000 -0.000 0.000
1410 1413 1414 1461 3 2.928800 -1.464400 0.209200 -1.673600 0.000000 0.000000
1410 1413 1417 1418 3 1.789 -5.052 -0.962 4.226 -0.000 0.000
1410 1413 1417 1419 3 1.789 -5.052 -0.962 4.226 -0.000 0.000
1411 1410 1413 1414 3 -0.778 -2.335 0.000 3.113 -0.000 0.000
1411 1410 1413 1417 3 -0.778 -2.335 0.000 3.113 -0.000 0.000
1412 1410 1413 1414 3 -0.778 -2.335 0.000 3.113 -0.000 0.000
1412 1410 1413 1417 3 -0.778 -2.335 0.000 3.113 -0.000 0.000
1414 1410 1413 1417 4 180.000 10.460 2
1413 1414 1461 1458 3 2.928800 -1.464400 0.209200 -1.673600 0.000000 0.000000
1413 1414 1461 1462 3 2.928800 -1.464400 0.209200 -1.673600 0.000000 0.000000
1413 1414 1461 1465 3 2.928800 -1.464400 0.209200 -1.673600 0.000000 0.000000
1413 1417 1419 1420 3 31.206 -9.768 -21.439 -0.000 -0.000 0.000
1414 1413 1417 1418 3 30.334 -5.230 -25.104 -0.000 -0.000 0.000
1414 1413 1417 1419 3 -5.858 -6.694 12.552 -0.000 -0.000 0.000
1415 1413 1414 1416 4 180.000 10.460 2
1417 1413 1414 1415 3 58.576 0.000 -58.576 -0.000 -0.000 0.000
1417 1413 1414 1416 3 58.576 0.000 -58.576 -0.000 -0.000 0.000
1417 1413 1414 1461 3 2.928800 -1.464400 0.209200 -1.673600 0.000000 0.000000
1418 1413 1417 1419 4 180.000 43.932 2
1414 1461 1462 1463 3 0.627600 1.882800 0.000000 -2.510400 0.000000 0.000000
1414 1461 1462 1464 3 0.627600 1.882800 0.000000 -2.510400 0.000000 0.000000
1414 1461 1462 1509 3 2.928800 -1.464400 0.209200 -1.673600 0.000000 0.000000
1414 1461 1465 1466 3 2.874410 0.581580 2.092000 -5.547990 0.000000 0.000000
1414 1461 1465 1467 3 2.874410 0.581580 2.092000 -5.547990 0.000000 0.000000
1415 1414 1461 1458 3 0.627600 1.882800 0.000000 -2.510400 0.000000 0.000000
1415 1414 1461 1462 3 0.627600 1.882800 0.000000 -2.510400 0.000000 0.000000
1415 1414 1461 1465 3 0.627600 1.882800 0.000000 -2.510400 0.000000 0.000000
1416 1414 1461 1458 3 0.627600 1.882800 0.000000 -2.510400 0.000000 0.000000
1416 1414 1461 1462 3 0.627600 1.882800 0.000000 -2.510400 0.000000 0.000000
1416 1414 1461 1465 3 0.627600 1.882800 0.000000 -2.510400 0.000000 0.000000
1457 1458 1461 1414 3 0.627600 1.882800 0.000000 -2.510400 0.000000 0.000000
1459 1458 1461 1414 3 0.627600 1.882800 0.000000 -2.510400 0.000000 0.000000
1460 1458 1461 1414 3 0.627600 1.882800 0.000000 -2.510400 0.000000 0.000000
1417 1419 1420 1421 3 0.414 1.243 0.000 -1.657 -0.000 0.000
1417 1419 1420 1422 3 0.414 1.243 0.000 -1.657 -0.000 0.000
1417 1419 1420 1423 3 -2.197 5.201 0.527 -3.531 -0.000 0.000
1418 1417 1419 1420 3 21.439 0.000 -21.439 -0.000 -0.000 0.000
1419 1420 1423 1424 3 0.979 2.937 0.000 -3.916 -0.000 0.000
1419 1420 1423 1425 3 0.979 2.937 0.000 -3.916 -0.000 0.000
1419 1420 1423 1426 3 2.874 0.582 2.092 -5.548 -0.000 0.000
1420 1423 1426 1427 3 0.628 1.883 0.000 -2.510 -0.000 0.000
1420 1423 1426 1428 3 0.628 1.883 0.000 -2.510 -0.000 0.000
1420 1423 1426 1429 3 2.301 -1.464 0.837 -1.674 -0.000 0.000
1421 1420 1423 1424 3 0.628 1.883 0.000 -2.510 -0.000 0.000
1421 1420 1423 1425 3 0.628 1.883 0.000 -2.510 -0.000 0.000
1421 1420 1423 1426 3 0.628 1.883 0.000 -2.510 -0.000 0.000
1422 1420 1423 1424 3 0.628 1.883 0.000 -2.510 -0.000 0.000
1422 1420 1423 1425 3 0.628 1.883 0.000 -2.510 -0.000 0.000
1422 1420 1423 1426 3 0.628 1.883 0.000 -2.510 -0.000 0.000
1423 1426 1429 1430 3 0.628 1.883 0.000 -2.510 -0.000 0.000
1423 1426 1429 1431 3 0.628 1.883 0.000 -2.510 -0.000 0.000
1423 1426 1429 1432 3 2.301 -1.464 0.837 -1.674 -0.000 0.000
1424 1423 1426 1427 3 0.628 1.883 0.000 -2.510 -0.000 0.000
1424 1423 1426 1428 3 0.628 1.883 0.000 -2.510 -0.000 0.000
1424 1423 1426 1429 3 0.628 1.883 0.000 -2.510 -0.000 0.000
1425 1423 1426 1427 3 0.628 1.883 0.000 -2.510 -0.000 0.000
1425 1423 1426 1428 3 0.628 1.883 0.000 -2.510 -0.000 0.000
1425 1423 1426 1429 3 0.628 1.883 0.000 -2.510 -0.000 0.000
1426 1429 1432 1433 3 0.628 1.883 0.000 -2.510 -0.000 0.000
1426 1429 1432 1434 3 0.628 1.883 0.000 -2.510 -0.000 0.000
1426 1429 1432 1435 3 2.301 -1.464 0.837 -1.674 -0.000 0.000
1427 1426 1429 1430 3 0.628 1.883 0.000 -2.510 -0.000 0.000
1427 1426 1429 1431 3 0.628 1.883 0.000 -2.510 -0.000 0.000
1427 1426 1429 1432 3 0.628 1.883 0.000 -2.510 -0.000 0.000
1428 1426 1429 1430 3 0.628 1.883 0.000 -2.510 -0.000 0.000
1428 1426 1429 1431 3 0.628 1.883 0.000 -2.510 -0.000 0.000
1428 1426 1429 1432 3 0.628 1.883 0.000 -2.510 -0.000 0.000
1429 1432 1435 1436 3 0.628 1.883 0.000 -2.510 -0.000 0.000
1429 1432 1435 1437 3 0.628 1.883 0.000 -2.510 -0.000 0.000
1429 1432 1435 1438 3 2.301 -1.464 0.837 -1.674 -0.000 0.000
1430 1429 1432 1433 3 0.628 1.883 0.000 -2.510 -0.000 0.000
1430 1429 1432 1434 3 0.628 1.883 0.000 -2.510 -0.000 0.000
1430 1429 1432 1435 3 0.628 1.883 0.000 -2.510 -0.000 0.000
1431 1429 1432 1433 3 0.628 1.883 0.000 -2.510 -0.000 0.000
1431 1429 1432 1434 3 0.628 1.883 0.000 -2.510 -0.000 0.000
1431 1429 1432 1435 3 0.628 1.883 0.000 -2.510 -0.000 0.000
1432 1435 1438 1439 3 0.628 1.883 0.000 -2.510 -0.000 0.000
1432 1435 1438 1440 3 0.628 1.883 0.000 -2.510 -0.000 0.000
1432 1435 1438 1441 3 2.301 -1.464 0.837 -1.674 -0.000 0.000
1433 1432 1435 1436 3 0.628 1.883 0.000 -2.510 -0.000 0.000
1433 1432 1435 1437 3 0.628 1.883 0.000 -2.510 -0.000 0.000
1433 1432 1435 1438 3 0.628 1.883 0.000 -2.510 -0.000 0.000
1434 1432 1435 1436 3 0.628 1.883 0.000 -2.510 -0.000 0.000
1434 1432 1435 1437 3 0.628 1.883 0.000 -2.510 -0.000 0.000
1434 1432 1435 1438 3 0.628 1.883 0.000 -2.510 -0.000 0.000
1435 1438 1441 1442 3 0.628 1.883 0.000 -2.510 -0.000 0.000
1435 1438 1441 1443 3 0.628 1.883 0.000 -2.510 -0.000 0.000
1435 1438 1441 1444 3 2.301 -1.464 0.837 -1.674 -0.000 0.000
1436 1435 1438 1439 3 0.628 1.883 0.000 -2.510 -0.000 0.000
1436 1435 1438 1440 3 0.628 1.883 0.000 -2.510 -0.000 0.000
1436 1435 1438 1441 3 0.628 1.883 0.000 -2.510 -0.000 0.000
1437 1435 1438 1439 3 0.628 1.883 0.000 -2.510 -0.000 0.000
1437 1435 1438 1440 3 0.628 1.883 0.000 -2.510 -0.000 0.000
1437 1435 1438 1441 3 0.628 1.883 0.000 -2.510 -0.000 0.000
1438 1441 1444 1445 3 0.628 1.883 0.000 -2.510 -0.000 0.000
1438 1441 1444 1446 3 0.628 1.883 0.000 -2.510 -0.000 0.000
1438 1441 1444 1447 3 2.301 -1.464 0.837 -1.674 -0.000 0.000
1439 1438 1441 1442 3 0.628 1.883 0.000 -2.510 -0.000 0.000
1439 1438 1441 1443 3 0.628 1.883 0.000 -2.510 -0.000 0.000
1439 1438 1441 1444 3 0.628 1.883 0.000 -2.510 -0.000 0.000
1440 1438 1441 1442 3 0.628 1.883 0.000 -2.510 -0.000 0.000
1440 1438 1441 1443 3 0.628 1.883 0.000 -2.510 -0.000 0.000
1440 1438 1441 1444 3 0.628 1.883 0.000 -2.510 -0.000 0.000
1441 1444 1447 1448 3 0.628 1.883 0.000 -2.510 -0.000 0.000
1441 1444 1447 1449 3 0.628 1.883 0.000 -2.510 -0.000 0.000
1441 1444 1447 1450 3 2.301 -1.464 0.837 -1.674 -0.000 0.000
1442 1441 1444 1445 3 0.628 1.883 0.000 -2.510 -0.000 0.000
1442 1441 1444 1446 3 0.628 1.883 0.000 -2.510 -0.000 0.000
1442 1441 1444 1447 3 0.628 1.883 0.000 -2.510 -0.000 0.000
1443 1441 1444 1445 3 0.628 1.883 0.000 -2.510 -0.000 0.000
1443 1441 1444 1446 3 0.628 1.883 0.000 -2.510 -0.000 0.000
1443 1441 1444 1447 3 0.628 1.883 0.000 -2.510 -0.000 0.000
1444 1447 1450 1451 3 0.628 1.883 0.000 -2.510 -0.000 0.000
1444 1447 1450 1452 3 0.628 1.883 0.000 -2.510 -0.000 0.000
1444 1447 1450 1453 3 2.301 -1.464 0.837 -1.674 -0.000 0.000
1445 1444 1447 1448 3 0.628 1.883 0.000 -2.510 -0.000 0.000
1445 1444 1447 1449 3 0.628 1.883 0.000 -2.510 -0.000 0.000
1445 1444 1447 1450 3 0.628 1.883 0.000 -2.510 -0.000 0.000
1446 1444 1447 1448 3 0.628 1.883 0.000 -2.510 -0.000 0.000
1446 1444 1447 1449 3 0.628 1.883 0.000 -2.510 -0.000 0.000
1446 1444 1447 1450 3 0.628 1.883 0.000 -2.510 -0.000 0.000
1447 1450 1453 1454 3 0.628 1.883 0.000 -2.510 -0.000 0.000
1447 1450 1453 1455 3 0.628 1.883 0.000 -2.510 -0.000 0.000
1447 1450 1453 1456 3 0.628 1.883 0.000 -2.510 -0.000 0.000
1448 1447 1450 1451 3 0.628 1.883 0.000 -2.510 -0.000 0.000
1448 1447 1450 1452 3 0.628 1.883 0.000 -2.510 -0.000 0.000
1448 1447 1450 1453 3 0.628 1.883 0.000 -2.510 -0.000 0.000
1449 1447 1450 1451 3 0.628 1.883 0.000 -2.510 -0.000 0.000
1449 1447 1450 1452 3 0.628 1.883 0.000 -2.510 -0.000 0.000
1449 1447 1450 1453 3 0.628 1.883 0.000 -2.510 -0.000 0.000
1451 1450 1453 1454 3 0.628 1.883 0.000 -2.510 -0.000 0.000
1451 1450 1453 1455 3 0.628 1.883 0.000 -2.510 -0.000 0.000
1451 1450 1453 1456 3 0.628 1.883 0.000 -2.510 -0.000 0.000
1452 1450 1453 1454 3 0.628 1.883 0.000 -2.510 -0.000 0.000
1452 1450 1453 1455 3 0.628 1.883 0.000 -2.510 -0.000 0.000
1452 1450 1453 1456 3 0.628 1.883 0.000 -2.510 -0.000 0.000
1457 1458 1461 1462 3 -0.778 -2.335 0.000 3.113 -0.000 0.000
1457 1458 1461 1465 3 -0.778 -2.335 0.000 3.113 -0.000 0.000
1458 1461 1462 1463 3 58.576 0.000 -58.576 -0.000 -0.000 0.000
1458 1461 1462 1464 3 58.576 0.000 -58.576 -0.000 -0.000 0.000
1458 1461 1462 1509 3 2.928800 -1.464400 0.209200 -1.673600 0.000000 0.000000
1458 1461 1465 1466 3 1.789 -5.052 -0.962 4.226 -0.000 0.000
1458 1461 1465 1467 3 1.789 -5.052 -0.962 4.226 -0.000 0.000
1459 1458 1461 1462 3 -0.778 -2.335 0.000 3.113 -0.000 0.000
1459 1458 1461 1465 3 -0.778 -2.335 0.000 3.113 -0.000 0.000
1460 1458 1461 1462 3 -0.778 -2.335 0.000 3.113 -0.000 0.000
1460 1458 1461 1465 3 -0.778 -2.335 0.000 3.113 -0.000 0.000
1462 1458 1461 1465 4 180.000 10.460 2
1461 1462 1509 1506 3 2.928800 -1.464400 0.209200 -1.673600 0.000000 0.000000
1461 1462 1509 1510 3 2.928800 -1.464400 0.209200 -1.673600 0.000000 0.000000
1461 1462 1509 1513 3 2.928800 -1.464400 0.209200 -1.673600 0.000000 0.000000
1461 1465 1467 1468 3 31.206 -9.768 -21.439 -0.000 -0.000 0.000
1462 1461 1465 1466 3 30.334 -5.230 -25.104 -0.000 -0.000 0.000
1462 1461 1465 1467 3 -5.858 -6.694 12.552 -0.000 -0.000 0.000
1463 1461 1462 1464 4 180.000 10.460 2
1465 1461 1462 1463 3 58.576 0.000 -58.576 -0.000 -0.000 0.000
1465 1461 1462 1464 3 58.576 0.000 -58.576 -0.000 -0.000 0.000
1465 1461 1462 1509 3 2.928800 -1.464400 0.209200 -1.673600 0.000000 0.000000
1466 1461 1465 1467 4 180.000 43.932 2
1462 1509 1510 1511 3 0.627600 1.882800 0.000000 -2.510400 0.000000 0.000000
1462 1509 1510 1512 3 0.627600 1.882800 0.000000 -2.510400 0.000000 0.000000
1462 1509 1510 1545 3 2.928800 -1.464400 0.209200 -1.673600 0.000000 0.000000
1462 1509 1513 1514 3 2.874410 0.581580 2.092000 -5.547990 0.000000 0.000000
1462 1509 1513 1515 3 2.874410 0.581580 2.092000 -5.547990 0.000000 0.000000
1463 1462 1509 1506 3 0.627600 1.882800 0.000000 -2.510400 0.000000 0.000000
1463 1462 1509 1510 3 0.627600 1.882800 0.000000 -2.510400 0.000000 0.000000
1463 1462 1509 1513 3 0.627600 1.882800 0.000000 -2.510400 0.000000 0.000000
1464 1462 1509 1506 3 0.627600 1.882800 0.000000 -2.510400 0.000000 0.000000
1464 1462 1509 1510 3 0.627600 1.882800 0.000000 -2.510400 0.000000 0.000000
1464 1462 1509 1513 3 0.627600 1.882800 0.000000 -2.510400 0.000000 0.000000
1505 1506 1509 1462 3 0.627600 1.882800 0.000000 -2.510400 0.000000 0.000000
1507 1506 1509 1462 3 0.627600 1.882800 0.000000 -2.510400 0.000000 0.000000
1508 1506 1509 1462 3 0.627600 1.882800 0.000000 -2.510400 0.000000 0.000000
1465 1467 1468 1469 3 0.414 1.243 0.000 -1.657 -0.000 0.000
1465 1467 1468 1470 3 0.414 1.243 0.000 -1.657 -0.000 0.000
1465 1467 1468 1471 3 -2.197 5.201 0.527 -3.531 -0.000 0.000
1466 1465 1467 1468 3 21.439 0.000 -21.439 -0.000 -0.000 0.000
1467 1468 1471 1472 3 0.979 2.937 0.000 -3.916 -0.000 0.000
1467 1468 1471 1473 3 0.979 2.937 0.000 -3.916 -0.000 0.000
1467 1468 1471 1474 3 2.874 0.582 2.092 -5.548 -0.000 0.000
1468 1471 1474 1475 3 0.628 1.883 0.000 -2.510 -0.000 0.000
1468 1471 1474 1476 3 0.628 1.883 0.000 -2.510 -0.000 0.000
1468 1471 1474 1477 3 2.301 -1.464 0.837 -1.674 -0.000 0.000
1469 1468 1471 1472 3 0.628 1.883 0.000 -2.510 -0.000 0.000
1469 1468 1471 1473 3 0.628 1.883 0.000 -2.510 -0.000 0.000
1469 1468 1471 1474 3 0.628 1.883 0.000 -2.510 -0.000 0.000
1470 1468 1471 1472 3 0.628 1.883 0.000 -2.510 -0.000 0.000
1470 1468 1471 1473 3 0.628 1.883 0.000 -2.510 -0.000 0.000
1470 1468 1471 1474 3 0.628 1.883 0.000 -2.510 -0.000 0.000
1471 1474 1477 1478 3 0.628 1.883 0.000 -2.510 -0.000 0.000
1471 1474 1477 1479 3 0.628 1.883 0.000 -2.510 -0.000 0.000
1471 1474 1477 1480 3 2.301 -1.464 0.837 -1.674 -0.000 0.000
1472 1471 1474 1475 3 0.628 1.883 0.000 -2.510 -0.000 0.000
1472 1471 1474 1476 3 0.628 1.883 0.000 -2.510 -0.000 0.000
1472 1471 1474 1477 3 0.628 1.883 0.000 -2.510 -0.000 0.000
1473 1471 1474 1475 3 0.628 1.883 0.000 -2.510 -0.000 0.000
1473 1471 1474 1476 3 0.628 1.883 0.000 -2.510 -0.000 0.000
1473 1471 1474 1477 3 0.628 1.883 0.000 -2.510 -0.000 0.000
1474 1477 1480 1481 3 0.628 1.883 0.000 -2.510 -0.000 0.000
1474 1477 1480 1482 3 0.628 1.883 0.000 -2.510 -0.000 0.000
1474 1477 1480 1483 3 2.301 -1.464 0.837 -1.674 -0.000 0.000
1475 1474 1477 1478 3 0.628 1.883 0.000 -2.510 -0.000 0.000
1475 1474 1477 1479 3 0.628 1.883 0.000 -2.510 -0.000 0.000
1475 1474 1477 1480 3 0.628 1.883 0.000 -2.510 -0.000 0.000
1476 1474 1477 1478 3 0.628 1.883 0.000 -2.510 -0.000 0.000
1476 1474 1477 1479 3 0.628 1.883 0.000 -2.510 -0.000 0.000
1476 1474 1477 1480 3 0.628 1.883 0.000 -2.510 -0.000 0.000
1477 1480 1483 1484 3 0.628 1.883 0.000 -2.510 -0.000 0.000
1477 1480 1483 1485 3 0.628 1.883 0.000 -2.510 -0.000 0.000
1477 1480 1483 1486 3 2.301 -1.464 0.837 -1.674 -0.000 0.000
1478 1477 1480 1481 3 0.628 1.883 0.000 -2.510 -0.000 0.000
1478 1477 1480 1482 3 0.628 1.883 0.000 -2.510 -0.000 0.000
1478 1477 1480 1483 3 0.628 1.883 0.000 -2.510 -0.000 0.000
1479 1477 1480 1481 3 0.628 1.883 0.000 -2.510 -0.000 0.000
1479 1477 1480 1482 3 0.628 1.883 0.000 -2.510 -0.000 0.000
1479 1477 1480 1483 3 0.628 1.883 0.000 -2.510 -0.000 0.000
1480 1483 1486 1487 3 0.628 1.883 0.000 -2.510 -0.000 0.000
1480 1483 1486 1488 3 0.628 1.883 0.000 -2.510 -0.000 0.000
1480 1483 1486 1489 3 2.301 -1.464 0.837 -1.674 -0.000 0.000
1481 1480 1483 1484 3 0.628 1.883 0.000 -2.510 -0.000 0.000
1481 1480 1483 1485 3 0.628 1.883 0.000 -2.510 -0.000 0.000
1481 1480 1483 1486 3 0.628 1.883 0.000 -2.510 -0.000 0.000
1482 1480 1483 1484 3 0.628 1.883 0.000 -2.510 -0.000 0.000
1482 1480 1483 1485 3 0.628 1.883 0.000 -2.510 -0.000 0.000
1482 1480 1483 1486 3 0.628 1.883 0.000 -2.510 -0.000 0.000
1483 1486 1489 1490 3 0.628 1.883 0.000 -2.510 -0.000 0.000
1483 1486 1489 1491 3 0.628 1.883 0.000 -2.510 -0.000 0.000
1483 1486 1489 1492 3 2.301 -1.464 0.837 -1.674 -0.000 0.000
1484 1483 1486 1487 3 0.628 1.883 0.000 -2.510 -0.000 0.000
1484 1483 1486 1488 3 0.628 1.883 0.000 -2.510 -0.000 0.000
1484 1483 1486 1489 3 0.628 1.883 0.000 -2.510 -0.000 0.000
1485 1483 1486 1487 3 0.628 1.883 0.000 -2.510 -0.000 0.000
1485 1483 1486 1488 3 0.628 1.883 0.000 -2.510 -0.000 0.000
1485 1483 1486 1489 3 0.628 1.883 0.000 -2.510 -0.000 0.000
1486 1489 1492 1493 3 0.628 1.883 0.000 -2.510 -0.000 0.000
1486 1489 1492 1494 3 0.628 1.883 0.000 -2.510 -0.000 0.000
1486 1489 1492 1495 3 2.301 -1.464 0.837 -1.674 -0.000 0.000
1487 1486 1489 1490 3 0.628 1.883 0.000 -2.510 -0.000 0.000
1487 1486 1489 1491 3 0.628 1.883 0.000 -2.510 -0.000 0.000
1487 1486 1489 1492 3 0.628 1.883 0.000 -2.510 -0.000 0.000
1488 1486 1489 1490 3 0.628 1.883 0.000 -2.510 -0.000 0.000
1488 1486 1489 1491 3 0.628 1.883 0.000 -2.510 -0.000 0.000
1488 1486 1489 1492 3 0.628 1.883 0.000 -2.510 -0.000 0.000
1489 1492 1495 1496 3 0.628 1.883 0.000 -2.510 -0.000 0.000
1489 1492 1495 1497 3 0.628 1.883 0.000 -2.510 -0.000 0.000
1489 1492 1495 1498 3 2.301 -1.464 0.837 -1.674 -0.000 0.000
1490 1489 1492 1493 3 0.628 1.883 0.000 -2.510 -0.000 0.000
1490 1489 1492 1494 3 0.628 1.883 0.000 -2.510 -0.000 0.000
1490 1489 1492 1495 3 0.628 1.883 0.000 -2.510 -0.000 0.000
1491 1489 1492 1493 3 0.628 1.883 0.000 -2.510 -0.000 0.000
1491 1489 1492 1494 3 0.628 1.883 0.000 -2.510 -0.000 0.000
1491 1489 1492 1495 3 0.628 1.883 0.000 -2.510 -0.000 0.000
1492 1495 1498 1499 3 0.628 1.883 0.000 -2.510 -0.000 0.000
1492 1495 1498 1500 3 0.628 1.883 0.000 -2.510 -0.000 0.000
1492 1495 1498 1501 3 2.301 -1.464 0.837 -1.674 -0.000 0.000
1493 1492 1495 1496 3 0.628 1.883 0.000 -2.510 -0.000 0.000
1493 1492 1495 1497 3 0.628 1.883 0.000 -2.510 -0.000 0.000
1493 1492 1495 1498 3 0.628 1.883 0.000 -2.510 -0.000 0.000
1494 1492 1495 1496 3 0.628 1.883 0.000 -2.510 -0.000 0.000
1494 1492 1495 1497 3 0.628 1.883 0.000 -2.510 -0.000 0.000
1494 1492 1495 1498 3 0.628 1.883 0.000 -2.510 -0.000 0.000
1495 1498 1501 1502 3 0.628 1.883 0.000 -2.510 -0.000 0.000
1495 1498 1501 1503 3 0.628 1.883 0.000 -2.510 -0.000 0.000
1495 1498 1501 1504 3 0.628 1.883 0.000 -2.510 -0.000 0.000
1496 1495 1498 1499 3 0.628 1.883 0.000 -2.510 -0.000 0.000
1496 1495 1498 1500 3 0.628 1.883 0.000 -2.510 -0.000 0.000
1496 1495 1498 1501 3 0.628 1.883 0.000 -2.510 -0.000 0.000
1497 1495 1498 1499 3 0.628 1.883 0.000 -2.510 -0.000 0.000
1497 1495 1498 1500 3 0.628 1.883 0.000 -2.510 -0.000 0.000
1497 1495 1498 1501 3 0.628 1.883 0.000 -2.510 -0.000 0.000
1499 1498 1501 1502 3 0.628 1.883 0.000 -2.510 -0.000 0.000
1499 1498 1501 1503 3 0.628 1.883 0.000 -2.510 -0.000 0.000
1499 1498 1501 1504 3 0.628 1.883 0.000 -2.510 -0.000 0.000
1500 1498 1501 1502 3 0.628 1.883 0.000 -2.510 -0.000 0.000
1500 1498 1501 1503 3 0.628 1.883 0.000 -2.510 -0.000 0.000
1500 1498 1501 1504 3 0.628 1.883 0.000 -2.510 -0.000 0.000
1505 1506 1509 1510 3 -0.778 -2.335 0.000 3.113 -0.000 0.000
1505 1506 1509 1513 3 -0.778 -2.335 0.000 3.113 -0.000 0.000
1506 1509 1510 1511 3 58.576 0.000 -58.576 -0.000 -0.000 0.000
1506 1509 1510 1512 3 58.576 0.000 -58.576 -0.000 -0.000 0.000
1506 1509 1510 1545 3 2.928800 -1.464400 0.209200 -1.673600 0.000000 0.000000
1506 1509 1513 1514 3 1.789 -5.052 -0.962 4.226 -0.000 0.000
1506 1509 1513 1515 3 1.789 -5.052 -0.962 4.226 -0.000 0.000
1507 1506 1509 1510 3 -0.778 -2.335 0.000 3.113 -0.000 0.000
1507 1506 1509 1513 3 -0.778 -2.335 0.000 3.113 -0.000 0.000
1508 1506 1509 1510 3 -0.778 -2.335 0.000 3.113 -0.000 0.000
1508 1506 1509 1513 3 -0.778 -2.335 0.000 3.113 -0.000 0.000
1510 1506 1509 1513 4 180.000 10.460 2
1509 1510 1545 1542 3 2.928800 -1.464400 0.209200 -1.673600 0.000000 0.000000
1509 1510 1545 1546 3 2.928800 -1.464400 0.209200 -1.673600 0.000000 0.000000
1509 1510 1545 1549 3 2.928800 -1.464400 0.209200 -1.673600 0.000000 0.000000
1509 1513 1515 1516 3 31.206 -9.768 -21.439 -0.000 -0.000 0.000
1510 1509 1513 1514 3 30.334 -5.230 -25.104 -0.000 -0.000 0.000
1510 1509 1513 1515 3 -5.858 -6.694 12.552 -0.000 -0.000 0.000
1511 1509 1510 1512 4 180.000 10.460 2
1513 1509 1510 1511 3 58.576 0.000 -58.576 -0.000 -0.000 0.000
1513 1509 1510 1512 3 58.576 0.000 -58.576 -0.000 -0.000 0.000
1513 1509 1510 1545 3 2.928800 -1.464400 0.209200 -1.673600 0.000000 0.000000
1514 1509 1513 1515 4 180.000 43.932 2
1510 1545 1546 1547 3 0.627600 1.882800 0.000000 -2.510400 0.000000 0.000000
1510 1545 1546 1548 3 0.627600 1.882800 0.000000 -2.510400 0.000000 0.000000
1510 1545 1546 1581 3 2.928800 -1.464400 0.209200 -1.673600 0.000000 0.000000
1510 1545 1549 1550 3 2.874410 0.581580 2.092000 -5.547990 0.000000 0.000000
1510 1545 1549 1551 3 2.874410 0.581580 2.092000 -5.547990 0.000000 0.000000
1511 1510 1545 1542 3 0.627600 1.882800 0.000000 -2.510400 0.000000 0.000000
1511 1510 1545 1546 3 0.627600 1.882800 0.000000 -2.510400 0.000000 0.000000
1511 1510 1545 1549 3 0.627600 1.882800 0.000000 -2.510400 0.000000 0.000000
1512 1510 1545 1542 3 0.627600 1.882800 0.000000 -2.510400 0.000000 0.000000
1512 1510 1545 1546 3 0.627600 1.882800 0.000000 -2.510400 0.000000 0.000000
1512 1510 1545 1549 3 0.627600 1.882800 0.000000 -2.510400 0.000000 0.000000
1541 1542 1545 1510 3 0.627600 1.882800 0.000000 -2.510400 0.000000 0.000000
1543 1542 1545 1510 3 0.627600 1.882800 0.000000 -2.510400 0.000000 0.000000
1544 1542 1545 1510 3 0.627600 1.882800 0.000000 -2.510400 0.000000 0.000000
1513 1515 1516 1517 3 0.414 1.243 0.000 -1.657 -0.000 0.000
1513 1515 1516 1518 3 0.414 1.243 0.000 -1.657 -0.000 0.000
1513 1515 1516 1519 3 -2.197 5.201 0.527 -3.531 -0.000 0.000
1514 1513 1515 1516 3 21.439 0.000 -21.439 -0.000 -0.000 0.000
1515 1516 1519 1520 3 0.979 2.937 0.000 -3.916 -0.000 0.000
1515 1516 1519 1521 3 2.874 0.582 2.092 -5.548 -0.000 0.000
1515 1516 1519 1528 3 2.874 0.582 2.092 -5.548 -0.000 0.000
1516 1519 1521 1522 3 0.628 1.883 0.000 -2.510 -0.000 0.000
1516 1519 1521 1523 3 0.628 1.883 0.000 -2.510 -0.000 0.000
1516 1519 1521 1524 3 2.301 -1.464 0.837 -1.674 -0.000 0.000
1516 1519 1528 1529 3 0.628 1.883 0.000 -2.510 -0.000 0.000
1516 1519 1528 1530 3 0.628 1.883 0.000 -2.510 -0.000 0.000
1516 1519 1528 1531 3 2.301 -1.464 0.837 -1.674 -0.000 0.000
1517 1516 1519 1520 3 0.628 1.883 0.000 -2.510 -0.000 0.000
1517 1516 1519 1521 3 0.628 1.883 0.000 -2.510 -0.000 0.000
1517 1516 1519 1528 3 0.628 1.883 0.000 -2.510 -0.000 0.000
1518 1516 1519 1520 3 0.628 1.883 0.000 -2.510 -0.000 0.000
1518 1516 1519 1521 3 0.628 1.883 0.000 -2.510 -0.000 0.000
1518 1516 1519 1528 3 0.628 1.883 0.000 -2.510 -0.000 0.000
1519 1521 1524 1525 3 0.628 1.883 0.000 -2.510 -0.000 0.000
1519 1521 1524 1526 3 0.628 1.883 0.000 -2.510 -0.000 0.000
1519 1521 1524 1527 3 0.628 1.883 0.000 -2.510 -0.000 0.000
1519 1528 1531 1532 3 0.628 1.883 0.000 -2.510 -0.000 0.000
1519 1528 1531 1533 3 0.628 1.883 0.000 -2.510 -0.000 0.000
1519 1528 1531 1534 3 2.301 -1.464 0.837 -1.674 -0.000 0.000
1520 1519 1521 1522 3 0.628 1.883 0.000 -2.510 -0.000 0.000
1520 1519 1521 1523 3 0.628 1.883 0.000 -2.510 -0.000 0.000
1520 1519 1521 1524 3 0.628 1.883 0.000 -2.510 -0.000 0.000
1520 1519 1528 1529 3 0.628 1.883 0.000 -2.510 -0.000 0.000
1520 1519 1528 1530 3 0.628 1.883 0.000 -2.510 -0.000 0.000
1520 1519 1528 1531 3 0.628 1.883 0.000 -2.510 -0.000 0.000
1521 1519 1528 1529 3 0.628 1.883 0.000 -2.510 -0.000 0.000
1521 1519 1528 1530 3 0.628 1.883 0.000 -2.510 -0.000 0.000
1521 1519 1528 1531 3 2.301 -1.464 0.837 -1.674 -0.000 0.000
1528 1519 1521 1522 3 0.628 1.883 0.000 -2.510 -0.000 0.000
1528 1519 1521 1523 3 0.628 1.883 0.000 -2.510 -0.000 0.000
1528 1519 1521 1524 3 2.301 -1.464 0.837 -1.674 -0.000 0.000
1522 1521 1524 1525 3 0.628 1.883 0.000 -2.510 -0.000 0.000
1522 1521 1524 1526 3 0.628 1.883 0.000 -2.510 -0.000 0.000
1522 1521 1524 1527 3 0.628 1.883 0.000 -2.510 -0.000 0.000
1523 1521 1524 1525 3 0.628 1.883 0.000 -2.510 -0.000 0.000
1523 1521 1524 1526 3 0.628 1.883 0.000 -2.510 -0.000 0.000
1523 1521 1524 1527 3 0.628 1.883 0.000 -2.510 -0.000 0.000
1528 1531 1534 1535 3 0.628 1.883 0.000 -2.510 -0.000 0.000
1528 1531 1534 1536 3 0.628 1.883 0.000 -2.510 -0.000 0.000
1528 1531 1534 1537 3 2.301 -1.464 0.837 -1.674 -0.000 0.000
1529 1528 1531 1532 3 0.628 1.883 0.000 -2.510 -0.000 0.000
1529 1528 1531 1533 3 0.628 1.883 0.000 -2.510 -0.000 0.000
1529 1528 1531 1534 3 0.628 1.883 0.000 -2.510 -0.000 0.000
1530 1528 1531 1532 3 0.628 1.883 0.000 -2.510 -0.000 0.000
1530 1528 1531 1533 3 0.628 1.883 0.000 -2.510 -0.000 0.000
1530 1528 1531 1534 3 0.628 1.883 0.000 -2.510 -0.000 0.000
1531 1534 1537 1538 3 0.628 1.883 0.000 -2.510 -0.000 0.000
1531 1534 1537 1539 3 0.628 1.883 0.000 -2.510 -0.000 0.000
1531 1534 1537 1540 3 0.628 1.883 0.000 -2.510 -0.000 0.000
1532 1531 1534 1535 3 0.628 1.883 0.000 -2.510 -0.000 0.000
1532 1531 1534 1536 3 0.628 1.883 0.000 -2.510 -0.000 0.000
1532 1531 1534 1537 3 0.628 1.883 0.000 -2.510 -0.000 0.000
1533 1531 1534 1535 3 0.628 1.883 0.000 -2.510 -0.000 0.000
1533 1531 1534 1536 3 0.628 1.883 0.000 -2.510 -0.000 0.000
1533 1531 1534 1537 3 0.628 1.883 0.000 -2.510 -0.000 0.000
1535 1534 1537 1538 3 0.628 1.883 0.000 -2.510 -0.000 0.000
1535 1534 1537 1539 3 0.628 1.883 0.000 -2.510 -0.000 0.000
1535 1534 1537 1540 3 0.628 1.883 0.000 -2.510 -0.000 0.000
1536 1534 1537 1538 3 0.628 1.883 0.000 -2.510 -0.000 0.000
1536 1534 1537 1539 3 0.628 1.883 0.000 -2.510 -0.000 0.000
1536 1534 1537 1540 3 0.628 1.883 0.000 -2.510 -0.000 0.000
1541 1542 1545 1546 3 -0.778 -2.335 0.000 3.113 -0.000 0.000
1541 1542 1545 1549 3 -0.778 -2.335 0.000 3.113 -0.000 0.000
1542 1545 1546 1547 3 58.576 0.000 -58.576 -0.000 -0.000 0.000
1542 1545 1546 1548 3 58.576 0.000 -58.576 -0.000 -0.000 0.000
1542 1545 1546 1581 3 2.928800 -1.464400 0.209200 -1.673600 0.000000 0.000000
1542 1545 1549 1550 3 1.789 -5.052 -0.962 4.226 -0.000 0.000
1542 1545 1549 1551 3 1.789 -5.052 -0.962 4.226 -0.000 0.000
1543 1542 1545 1546 3 -0.778 -2.335 0.000 3.113 -0.000 0.000
1543 1542 1545 1549 3 -0.778 -2.335 0.000 3.113 -0.000 0.000
1544 1542 1545 1546 3 -0.778 -2.335 0.000 3.113 -0.000 0.000
1544 1542 1545 1549 3 -0.778 -2.335 0.000 3.113 -0.000 0.000
1546 1542 1545 1549 4 180.000 10.460 2
1545 1546 1581 1578 3 2.928800 -1.464400 0.209200 -1.673600 0.000000 0.000000
1545 1546 1581 1582 3 2.928800 -1.464400 0.209200 -1.673600 0.000000 0.000000
1545 1546 1581 1585 3 2.928800 -1.464400 0.209200 -1.673600 0.000000 0.000000
1545 1549 1551 1552 3 31.206 -9.768 -21.439 -0.000 -0.000 0.000
1546 1545 1549 1550 3 30.334 -5.230 -25.104 -0.000 -0.000 0.000
1546 1545 1549 1551 3 -5.858 -6.694 12.552 -0.000 -0.000 0.000
1547 1545 1546 1548 4 180.000 10.460 2
1549 1545 1546 1547 3 58.576 0.000 -58.576 -0.000 -0.000 0.000
1549 1545 1546 1548 3 58.576 0.000 -58.576 -0.000 -0.000 0.000
1549 1545 1546 1581 3 2.928800 -1.464400 0.209200 -1.673600 0.000000 0.000000
1550 1545 1549 1551 4 180.000 43.932 2
1546 1581 1582 1583 3 0.627600 1.882800 0.000000 -2.510400 0.000000 0.000000
1546 1581 1582 1584 3 0.627600 1.882800 0.000000 -2.510400 0.000000 0.000000
1546 1581 1582 1629 3 2.928800 -1.464400 0.209200 -1.673600 0.000000 0.000000
1546 1581 1585 1586 3 2.874410 0.581580 2.092000 -5.547990 0.000000 0.000000
1546 1581 1585 1587 3 2.874410 0.581580 2.092000 -5.547990 0.000000 0.000000
1547 1546 1581 1578 3 0.627600 1.882800 0.000000 -2.510400 0.000000 0.000000
1547 1546 1581 1582 3 0.627600 1.882800 0.000000 -2.510400 0.000000 0.000000
1547 1546 1581 1585 3 0.627600 1.882800 0.000000 -2.510400 0.000000 0.000000
1548 1546 1581 1578 3 0.627600 1.882800 0.000000 -2.510400 0.000000 0.000000
1548 1546 1581 1582 3 0.627600 1.882800 0.000000 -2.510400 0.000000 0.000000
1548 1546 1581 1585 3 0.627600 1.882800 0.000000 -2.510400 0.000000 0.000000
1577 1578 1581 1546 3 0.627600 1.882800 0.000000 -2.510400 0.000000 0.000000
1579 1578 1581 1546 3 0.627600 1.882800 0.000000 -2.510400 0.000000 0.000000
1580 1578 1581 1546 3 0.627600 1.882800 0.000000 -2.510400 0.000000 0.000000
1549 1551 1552 1553 3 0.414 1.243 0.000 -1.657 -0.000 0.000
1549 1551 1552 1554 3 0.414 1.243 0.000 -1.657 -0.000 0.000
1549 1551 1552 1555 3 -2.197 5.201 0.527 -3.531 -0.000 0.000
1550 1549 1551 1552 3 21.439 0.000 -21.439 -0.000 -0.000 0.000
1551 1552 1555 1556 3 0.979 2.937 0.000 -3.916 -0.000 0.000
1551 1552 1555 1557 3 2.874 0.582 2.092 -5.548 -0.000 0.000
1551 1552 1555 1564 3 2.874 0.582 2.092 -5.548 -0.000 0.000
1552 1555 1557 1558 3 0.628 1.883 0.000 -2.510 -0.000 0.000
1552 1555 1557 1559 3 0.628 1.883 0.000 -2.510 -0.000 0.000
1552 1555 1557 1560 3 2.301 -1.464 0.837 -1.674 -0.000 0.000
1552 1555 1564 1565 3 0.628 1.883 0.000 -2.510 -0.000 0.000
1552 1555 1564 1566 3 0.628 1.883 0.000 -2.510 -0.000 0.000
1552 1555 1564 1567 3 2.301 -1.464 0.837 -1.674 -0.000 0.000
1553 1552 1555 1556 3 0.628 1.883 0.000 -2.510 -0.000 0.000
1553 1552 1555 1557 3 0.628 1.883 0.000 -2.510 -0.000 0.000
1553 1552 1555 1564 3 0.628 1.883 0.000 -2.510 -0.000 0.000
1554 1552 1555 1556 3 0.628 1.883 0.000 -2.510 -0.000 0.000
1554 1552 1555 1557 3 0.628 1.883 0.000 -2.510 -0.000 0.000
1554 1552 1555 1564 3 0.628 1.883 0.000 -2.510 -0.000 0.000
1555 1557 1560 1561 3 0.628 1.883 0.000 -2.510 -0.000 0.000
1555 1557 1560 1562 3 0.628 1.883 0.000 -2.510 -0.000 0.000
1555 1557 1560 1563 3 0.628 1.883 0.000 -2.510 -0.000 0.000
1555 1564 1567 1568 3 0.628 1.883 0.000 -2.510 -0.000 0.000
1555 1564 1567 1569 3 0.628 1.883 0.000 -2.510 -0.000 0.000
1555 1564 1567 1570 3 2.301 -1.464 0.837 -1.674 -0.000 0.000
1556 1555 1557 1558 3 0.628 1.883 0.000 -2.510 -0.000 0.000
1556 1555 1557 1559 3 0.628 1.883 0.000 -2.510 -0.000 0.000
1556 1555 1557 1560 3 0.628 1.883 0.000 -2.510 -0.000 0.000
1556 1555 1564 1565 3 0.628 1.883 0.000 -2.510 -0.000 0.000
1556 1555 1564 1566 3 0.628 1.883 0.000 -2.510 -0.000 0.000
1556 1555 1564 1567 3 0.628 1.883 0.000 -2.510 -0.000 0.000
1557 1555 1564 1565 3 0.628 1.883 0.000 -2.510 -0.000 0.000
1557 1555 1564 1566 3 0.628 1.883 0.000 -2.510 -0.000 0.000
1557 1555 1564 1567 3 2.301 -1.464 0.837 -1.674 -0.000 0.000
1564 1555 1557 1558 3 0.628 1.883 0.000 -2.510 -0.000 0.000
1564 1555 1557 1559 3 0.628 1.883 0.000 -2.510 -0.000 0.000
1564 1555 1557 1560 3 2.301 -1.464 0.837 -1.674 -0.000 0.000
1558 1557 1560 1561 3 0.628 1.883 0.000 -2.510 -0.000 0.000
1558 1557 1560 1562 3 0.628 1.883 0.000 -2.510 -0.000 0.000
1558 1557 1560 1563 3 0.628 1.883 0.000 -2.510 -0.000 0.000
1559 1557 1560 1561 3 0.628 1.883 0.000 -2.510 -0.000 0.000
1559 1557 1560 1562 3 0.628 1.883 0.000 -2.510 -0.000 0.000
1559 1557 1560 1563 3 0.628 1.883 0.000 -2.510 -0.000 0.000
1564 1567 1570 1571 3 0.628 1.883 0.000 -2.510 -0.000 0.000
1564 1567 1570 1572 3 0.628 1.883 0.000 -2.510 -0.000 0.000
1564 1567 1570 1573 3 2.301 -1.464 0.837 -1.674 -0.000 0.000
1565 1564 1567 1568 3 0.628 1.883 0.000 -2.510 -0.000 0.000
1565 1564 1567 1569 3 0.628 1.883 0.000 -2.510 -0.000 0.000
1565 1564 1567 1570 3 0.628 1.883 0.000 -2.510 -0.000 0.000
1566 1564 1567 1568 3 0.628 1.883 0.000 -2.510 -0.000 0.000
1566 1564 1567 1569 3 0.628 1.883 0.000 -2.510 -0.000 0.000
1566 1564 1567 1570 3 0.628 1.883 0.000 -2.510 -0.000 0.000
1567 1570 1573 1574 3 0.628 1.883 0.000 -2.510 -0.000 0.000
1567 1570 1573 1575 3 0.628 1.883 0.000 -2.510 -0.000 0.000
1567 1570 1573 1576 3 0.628 1.883 0.000 -2.510 -0.000 0.000
1568 1567 1570 1571 3 0.628 1.883 0.000 -2.510 -0.000 0.000
1568 1567 1570 1572 3 0.628 1.883 0.000 -2.510 -0.000 0.000
1568 1567 1570 1573 3 0.628 1.883 0.000 -2.510 -0.000 0.000
1569 1567 1570 1571 3 0.628 1.883 0.000 -2.510 -0.000 0.000
1569 1567 1570 1572 3 0.628 1.883 0.000 -2.510 -0.000 0.000
1569 1567 1570 1573 3 0.628 1.883 0.000 -2.510 -0.000 0.000
1571 1570 1573 1574 3 0.628 1.883 0.000 -2.510 -0.000 0.000
1571 1570 1573 1575 3 0.628 1.883 0.000 -2.510 -0.000 0.000
1571 1570 1573 1576 3 0.628 1.883 0.000 -2.510 -0.000 0.000
1572 1570 1573 1574 3 0.628 1.883 0.000 -2.510 -0.000 0.000
1572 1570 1573 1575 3 0.628 1.883 0.000 -2.510 -0.000 0.000
1572 1570 1573 1576 3 0.628 1.883 0.000 -2.510 -0.000 0.000
1577 1578 1581 1582 3 -0.778 -2.335 0.000 3.113 -0.000 0.000
1577 1578 1581 1585 3 -0.778 -2.335 0.000 3.113 -0.000 0.000
1578 1581 1582 1583 3 58.576 0.000 -58.576 -0.000 -0.000 0.000
1578 1581 1582 1584 3 58.576 0.000 -58.576 -0.000 -0.000 0.000
1578 1581 1582 1629 3 2.928800 -1.464400 0.209200 -1.673600 0.000000 0.000000
1578 1581 1585 1586 3 1.789 -5.052 -0.962 4.226 -0.000 0.000
1578 1581 1585 1587 3 1.789 -5.052 -0.962 4.226 -0.000 0.000
1579 1578 1581 1582 3 -0.778 -2.335 0.000 3.113 -0.000 0.000
1579 1578 1581 1585 3 -0.778 -2.335 0.000 3.113 -0.000 0.000
1580 1578 1581 1582 3 -0.778 -2.335 0.000 3.113 -0.000 0.000
1580 1578 1581 1585 3 -0.778 -2.335 0.000 3.113 -0.000 0.000
1582 1578 1581 1585 4 180.000 10.460 2
1581 1582 1629 1626 3 2.928800 -1.464400 0.209200 -1.673600 0.000000 0.000000
1581 1582 1629 1630 3 2.928800 -1.464400 0.209200 -1.673600 0.000000 0.000000
1581 1582 1629 1633 3 2.928800 -1.464400 0.209200 -1.673600 0.000000 0.000000
1581 1585 1587 1588 3 31.206 -9.768 -21.439 -0.000 -0.000 0.000
1582 1581 1585 1586 3 30.334 -5.230 -25.104 -0.000 -0.000 0.000
1582 1581 1585 1587 3 -5.858 -6.694 12.552 -0.000 -0.000 0.000
1583 1581 1582 1584 4 180.000 10.460 2
1585 1581 1582 1583 3 58.576 0.000 -58.576 -0.000 -0.000 0.000
1585 1581 1582 1584 3 58.576 0.000 -58.576 -0.000 -0.000 0.000
1585 1581 1582 1629 3 2.928800 -1.464400 0.209200 -1.673600 0.000000 0.000000
1586 1581 1585 1587 4 180.000 43.932 2
1582 1629 1630 1631 3 0.627600 1.882800 0.000000 -2.510400 0.000000 0.000000
1582 1629 1630 1632 3 0.627600 1.882800 0.000000 -2.510400 0.000000 0.000000
1582 1629 1630 1665 3 2.928800 -1.464400 0.209200 -1.673600 0.000000 0.000000
1582 1629 1633 1634 3 2.874410 0.581580 2.092000 -5.547990 0.000000 0.000000
1582 1629 1633 1635 3 2.874410 0.581580 2.092000 -5.547990 0.000000 0.000000
1583 1582 1629 1626 3 0.627600 1.882800 0.000000 -2.510400 0.000000 0.000000
1583 1582 1629 1630 3 0.627600 1.882800 0.000000 -2.510400 0.000000 0.000000
1583 1582 1629 1633 3 0.627600 1.882800 0.000000 -2.510400 0.000000 0.000000
1584 1582 1629 1626 3 0.627600 1.882800 0.000000 -2.510400 0.000000 0.000000
1584 1582 1629 1630 3 0.627600 1.882800 0.000000 -2.510400 0.000000 0.000000
1584 1582 1629 1633 3 0.627600 1.882800 0.000000 -2.510400 0.000000 0.000000
1625 1626 1629 1582 3 0.627600 1.882800 0.000000 -2.510400 0.000000 0.000000
1627 1626 1629 1582 3 0.627600 1.882800 0.000000 -2.510400 0.000000 0.000000
1628 1626 1629 1582 3 0.627600 1.882800 0.000000 -2.510400 0.000000 0.000000
1585 1587 1588 1589 3 0.414 1.243 0.000 -1.657 -0.000 0.000
1585 1587 1588 1590 3 0.414 1.243 0.000 -1.657 -0.000 0.000
1585 1587 1588 1591 3 -2.197 5.201 0.527 -3.531 -0.000 0.000
1586 1585 1587 1588 3 21.439 0.000 -21.439 -0.000 -0.000 0.000
1587 1588 1591 1592 3 0.979 2.937 0.000 -3.916 -0.000 0.000
1587 1588 1591 1593 3 0.979 2.937 0.000 -3.916 -0.000 0.000
1587 1588 1591 1594 3 2.874 0.582 2.092 -5.548 -0.000 0.000
1588 1591 1594 1595 3 0.628 1.883 0.000 -2.510 -0.000 0.000
1588 1591 1594 1596 3 0.628 1.883 0.000 -2.510 -0.000 0.000
1588 1591 1594 1597 3 2.301 -1.464 0.837 -1.674 -0.000 0.000
1589 1588 1591 1592 3 0.628 1.883 0.000 -2.510 -0.000 0.000
1589 1588 1591 1593 3 0.628 1.883 0.000 -2.510 -0.000 0.000
1589 1588 1591 1594 3 0.628 1.883 0.000 -2.510 -0.000 0.000
1590 1588 1591 1592 3 0.628 1.883 0.000 -2.510 -0.000 0.000
1590 1588 1591 1593 3 0.628 1.883 0.000 -2.510 -0.000 0.000
1590 1588 1591 1594 3 0.628 1.883 0.000 -2.510 -0.000 0.000
1591 1594 1597 1598 3 0.628 1.883 0.000 -2.510 -0.000 0.000
1591 1594 1597 1599 3 0.628 1.883 0.000 -2.510 -0.000 0.000
1591 1594 1597 1600 3 2.301 -1.464 0.837 -1.674 -0.000 0.000
1592 1591 1594 1595 3 0.628 1.883 0.000 -2.510 -0.000 0.000
1592 1591 1594 1596 3 0.628 1.883 0.000 -2.510 -0.000 0.000
1592 1591 1594 1597 3 0.628 1.883 0.000 -2.510 -0.000 0.000
1593 1591 1594 1595 3 0.628 1.883 0.000 -2.510 -0.000 0.000
1593 1591 1594 1596 3 0.628 1.883 0.000 -2.510 -0.000 0.000
1593 1591 1594 1597 3 0.628 1.883 0.000 -2.510 -0.000 0.000
1594 1597 1600 1601 3 0.628 1.883 0.000 -2.510 -0.000 0.000
1594 1597 1600 1602 3 0.628 1.883 0.000 -2.510 -0.000 0.000
1594 1597 1600 1603 3 2.301 -1.464 0.837 -1.674 -0.000 0.000
1595 1594 1597 1598 3 0.628 1.883 0.000 -2.510 -0.000 0.000
1595 1594 1597 1599 3 0.628 1.883 0.000 -2.510 -0.000 0.000
1595 1594 1597 1600 3 0.628 1.883 0.000 -2.510 -0.000 0.000
1596 1594 1597 1598 3 0.628 1.883 0.000 -2.510 -0.000 0.000
1596 1594 1597 1599 3 0.628 1.883 0.000 -2.510 -0.000 0.000
1596 1594 1597 1600 3 0.628 1.883 0.000 -2.510 -0.000 0.000
1597 1600 1603 1604 3 0.628 1.883 0.000 -2.510 -0.000 0.000
1597 1600 1603 1605 3 0.628 1.883 0.000 -2.510 -0.000 0.000
1597 1600 1603 1606 3 2.301 -1.464 0.837 -1.674 -0.000 0.000
1598 1597 1600 1601 3 0.628 1.883 0.000 -2.510 -0.000 0.000
1598 1597 1600 1602 3 0.628 1.883 0.000 -2.510 -0.000 0.000
1598 1597 1600 1603 3 0.628 1.883 0.000 -2.510 -0.000 0.000
1599 1597 1600 1601 3 0.628 1.883 0.000 -2.510 -0.000 0.000
1599 1597 1600 1602 3 0.628 1.883 0.000 -2.510 -0.000 0.000
1599 1597 1600 1603 3 0.628 1.883 0.000 -2.510 -0.000 0.000
1600 1603 1606 1607 3 0.628 1.883 0.000 -2.510 -0.000 0.000
1600 1603 1606 1608 3 0.628 1.883 0.000 -2.510 -0.000 0.000
1600 1603 1606 1609 3 2.301 -1.464 0.837 -1.674 -0.000 0.000
1601 1600 1603 1604 3 0.628 1.883 0.000 -2.510 -0.000 0.000
1601 1600 1603 1605 3 0.628 1.883 0.000 -2.510 -0.000 0.000
1601 1600 1603 1606 3 0.628 1.883 0.000 -2.510 -0.000 0.000
1602 1600 1603 1604 3 0.628 1.883 0.000 -2.510 -0.000 0.000
1602 1600 1603 1605 3 0.628 1.883 0.000 -2.510 -0.000 0.000
1602 1600 1603 1606 3 0.628 1.883 0.000 -2.510 -0.000 0.000
1603 1606 1609 1610 3 0.628 1.883 0.000 -2.510 -0.000 0.000
1603 1606 1609 1611 3 0.628 1.883 0.000 -2.510 -0.000 0.000
1603 1606 1609 1612 3 2.301 -1.464 0.837 -1.674 -0.000 0.000
1604 1603 1606 1607 3 0.628 1.883 0.000 -2.510 -0.000 0.000
1604 1603 1606 1608 3 0.628 1.883 0.000 -2.510 -0.000 0.000
1604 1603 1606 1609 3 0.628 1.883 0.000 -2.510 -0.000 0.000
1605 1603 1606 1607 3 0.628 1.883 0.000 -2.510 -0.000 0.000
1605 1603 1606 1608 3 0.628 1.883 0.000 -2.510 -0.000 0.000
1605 1603 1606 1609 3 0.628 1.883 0.000 -2.510 -0.000 0.000
1606 1609 1612 1613 3 0.628 1.883 0.000 -2.510 -0.000 0.000
1606 1609 1612 1614 3 0.628 1.883 0.000 -2.510 -0.000 0.000
1606 1609 1612 1615 3 2.301 -1.464 0.837 -1.674 -0.000 0.000
1607 1606 1609 1610 3 0.628 1.883 0.000 -2.510 -0.000 0.000
1607 1606 1609 1611 3 0.628 1.883 0.000 -2.510 -0.000 0.000
1607 1606 1609 1612 3 0.628 1.883 0.000 -2.510 -0.000 0.000
1608 1606 1609 1610 3 0.628 1.883 0.000 -2.510 -0.000 0.000
1608 1606 1609 1611 3 0.628 1.883 0.000 -2.510 -0.000 0.000
1608 1606 1609 1612 3 0.628 1.883 0.000 -2.510 -0.000 0.000
1609 1612 1615 1616 3 0.628 1.883 0.000 -2.510 -0.000 0.000
1609 1612 1615 1617 3 0.628 1.883 0.000 -2.510 -0.000 0.000
1609 1612 1615 1618 3 2.301 -1.464 0.837 -1.674 -0.000 0.000
1610 1609 1612 1613 3 0.628 1.883 0.000 -2.510 -0.000 0.000
1610 1609 1612 1614 3 0.628 1.883 0.000 -2.510 -0.000 0.000
1610 1609 1612 1615 3 0.628 1.883 0.000 -2.510 -0.000 0.000
1611 1609 1612 1613 3 0.628 1.883 0.000 -2.510 -0.000 0.000
1611 1609 1612 1614 3 0.628 1.883 0.000 -2.510 -0.000 0.000
1611 1609 1612 1615 3 0.628 1.883 0.000 -2.510 -0.000 0.000
1612 1615 1618 1619 3 0.628 1.883 0.000 -2.510 -0.000 0.000
1612 1615 1618 1620 3 0.628 1.883 0.000 -2.510 -0.000 0.000
1612 1615 1618 1621 3 2.301 -1.464 0.837 -1.674 -0.000 0.000
1613 1612 1615 1616 3 0.628 1.883 0.000 -2.510 -0.000 0.000
1613 1612 1615 1617 3 0.628 1.883 0.000 -2.510 -0.000 0.000
1613 1612 1615 1618 3 0.628 1.883 0.000 -2.510 -0.000 0.000
1614 1612 1615 1616 3 0.628 1.883 0.000 -2.510 -0.000 0.000
1614 1612 1615 1617 3 0.628 1.883 0.000 -2.510 -0.000 0.000
1614 1612 1615 1618 3 0.628 1.883 0.000 -2.510 -0.000 0.000
1615 1618 1621 1622 3 0.628 1.883 0.000 -2.510 -0.000 0.000
1615 1618 1621 1623 3 0.628 1.883 0.000 -2.510 -0.000 0.000
1615 1618 1621 1624 3 0.628 1.883 0.000 -2.510 -0.000 0.000
1616 1615 1618 1619 3 0.628 1.883 0.000 -2.510 -0.000 0.000
1616 1615 1618 1620 3 0.628 1.883 0.000 -2.510 -0.000 0.000
1616 1615 1618 1621 3 0.628 1.883 0.000 -2.510 -0.000 0.000
1617 1615 1618 1619 3 0.628 1.883 0.000 -2.510 -0.000 0.000
1617 1615 1618 1620 3 0.628 1.883 0.000 -2.510 -0.000 0.000
1617 1615 1618 1621 3 0.628 1.883 0.000 -2.510 -0.000 0.000
1619 1618 1621 1622 3 0.628 1.883 0.000 -2.510 -0.000 0.000
1619 1618 1621 1623 3 0.628 1.883 0.000 -2.510 -0.000 0.000
1619 1618 1621 1624 3 0.628 1.883 0.000 -2.510 -0.000 0.000
1620 1618 1621 1622 3 0.628 1.883 0.000 -2.510 -0.000 0.000
1620 1618 1621 1623 3 0.628 1.883 0.000 -2.510 -0.000 0.000
1620 1618 1621 1624 3 0.628 1.883 0.000 -2.510 -0.000 0.000
1625 1626 1629 1630 3 -0.778 -2.335 0.000 3.113 -0.000 0.000
1625 1626 1629 1633 3 -0.778 -2.335 0.000 3.113 -0.000 0.000
1626 1629 1630 1631 3 58.576 0.000 -58.576 -0.000 -0.000 0.000
1626 1629 1630 1632 3 58.576 0.000 -58.576 -0.000 -0.000 0.000
1626 1629 1630 1665 3 2.928800 -1.464400 0.209200 -1.673600 0.000000 0.000000
1626 1629 1633 1634 3 1.789 -5.052 -0.962 4.226 -0.000 0.000
1626 1629 1633 1635 3 1.789 -5.052 -0.962 4.226 -0.000 0.000
1627 1626 1629 1630 3 -0.778 -2.335 0.000 3.113 -0.000 0.000
1627 1626 1629 1633 3 -0.778 -2.335 0.000 3.113 -0.000 0.000
1628 1626 1629 1630 3 -0.778 -2.335 0.000 3.113 -0.000 0.000
1628 1626 1629 1633 3 -0.778 -2.335 0.000 3.113 -0.000 0.000
1630 1626 1629 1633 4 180.000 10.460 2
1629 1630 1665 1662 3 2.928800 -1.464400 0.209200 -1.673600 0.000000 0.000000
1629 1630 1665 1666 3 2.928800 -1.464400 0.209200 -1.673600 0.000000 0.000000
1629 1630 1665 1669 3 2.928800 -1.464400 0.209200 -1.673600 0.000000 0.000000
1629 1633 1635 1636 3 31.206 -9.768 -21.439 -0.000 -0.000 0.000
1630 1629 1633 1634 3 30.334 -5.230 -25.104 -0.000 -0.000 0.000
1630 1629 1633 1635 3 -5.858 -6.694 12.552 -0.000 -0.000 0.000
1631 1629 1630 1632 4 180.000 10.460 2
1633 1629 1630 1631 3 58.576 0.000 -58.576 -0.000 -0.000 0.000
1633 1629 1630 1632 3 58.576 0.000 -58.576 -0.000 -0.000 0.000
1633 1629 1630 1665 3 2.928800 -1.464400 0.209200 -1.673600 0.000000 0.000000
1634 1629 1633 1635 4 180.000 43.932 2
1630 1665 1666 1667 3 0.627600 1.882800 0.000000 -2.510400 0.000000 0.000000
1630 1665 1666 1668 3 0.627600 1.882800 0.000000 -2.510400 0.000000 0.000000
1630 1665 1666 1701 3 2.928800 -1.464400 0.209200 -1.673600 0.000000 0.000000
1630 1665 1669 1670 3 2.874410 0.581580 2.092000 -5.547990 0.000000 0.000000
1630 1665 1669 1671 3 2.874410 0.581580 2.092000 -5.547990 0.000000 0.000000
1631 1630 1665 1662 3 0.627600 1.882800 0.000000 -2.510400 0.000000 0.000000
1631 1630 1665 1666 3 0.627600 1.882800 0.000000 -2.510400 0.000000 0.000000
1631 1630 1665 1669 3 0.627600 1.882800 0.000000 -2.510400 0.000000 0.000000
1632 1630 1665 1662 3 0.627600 1.882800 0.000000 -2.510400 0.000000 0.000000
1632 1630 1665 1666 3 0.627600 1.882800 0.000000 -2.510400 0.000000 0.000000
1632 1630 1665 1669 3 0.627600 1.882800 0.000000 -2.510400 0.000000 0.000000
1661 1662 1665 1630 3 0.627600 1.882800 0.000000 -2.510400 0.000000 0.000000
1663 1662 1665 1630 3 0.627600 1.882800 0.000000 -2.510400 0.000000 0.000000
1664 1662 1665 1630 3 0.627600 1.882800 0.000000 -2.510400 0.000000 0.000000
1633 1635 1636 1637 3 0.414 1.243 0.000 -1.657 -0.000 0.000
1633 1635 1636 1638 3 0.414 1.243 0.000 -1.657 -0.000 0.000
1633 1635 1636 1639 3 -2.197 5.201 0.527 -3.531 -0.000 0.000
1634 1633 1635 1636 3 21.439 0.000 -21.439 -0.000 -0.000 0.000
1635 1636 1639 1640 3 0.979 2.937 0.000 -3.916 -0.000 0.000
1635 1636 1639 1641 3 2.874 0.582 2.092 -5.548 -0.000 0.000
1635 1636 1639 1648 3 2.874 0.582 2.092 -5.548 -0.000 0.000
1636 1639 1641 1642 3 0.628 1.883 0.000 -2.510 -0.000 0.000
1636 1639 1641 1643 3 0.628 1.883 0.000 -2.510 -0.000 0.000
1636 1639 1641 1644 3 2.301 -1.464 0.837 -1.674 -0.000 0.000
1636 1639 1648 1649 3 0.628 1.883 0.000 -2.510 -0.000 0.000
1636 1639 1648 1650 3 0.628 1.883 0.000 -2.510 -0.000 0.000
1636 1639 1648 1651 3 2.301 -1.464 0.837 -1.674 -0.000 0.000
1637 1636 1639 1640 3 0.628 1.883 0.000 -2.510 -0.000 0.000
1637 1636 1639 1641 3 0.628 1.883 0.000 -2.510 -0.000 0.000
1637 1636 1639 1648 3 0.628 1.883 0.000 -2.510 -0.000 0.000
1638 1636 1639 1640 3 0.628 1.883 0.000 -2.510 -0.000 0.000
1638 1636 1639 1641 3 0.628 1.883 0.000 -2.510 -0.000 0.000
1638 1636 1639 1648 3 0.628 1.883 0.000 -2.510 -0.000 0.000
1639 1641 1644 1645 3 0.628 1.883 0.000 -2.510 -0.000 0.000
1639 1641 1644 1646 3 0.628 1.883 0.000 -2.510 -0.000 0.000
1639 1641 1644 1647 3 0.628 1.883 0.000 -2.510 -0.000 0.000
1639 1648 1651 1652 3 0.628 1.883 0.000 -2.510 -0.000 0.000
1639 1648 1651 1653 3 0.628 1.883 0.000 -2.510 -0.000 0.000
1639 1648 1651 1654 3 2.301 -1.464 0.837 -1.674 -0.000 0.000
1640 1639 1641 1642 3 0.628 1.883 0.000 -2.510 -0.000 0.000
1640 1639 1641 1643 3 0.628 1.883 0.000 -2.510 -0.000 0.000
1640 1639 1641 1644 3 0.628 1.883 0.000 -2.510 -0.000 0.000
1640 1639 1648 1649 3 0.628 1.883 0.000 -2.510 -0.000 0.000
1640 1639 1648 1650 3 0.628 1.883 0.000 -2.510 -0.000 0.000
1640 1639 1648 1651 3 0.628 1.883 0.000 -2.510 -0.000 0.000
1641 1639 1648 1649 3 0.628 1.883 0.000 -2.510 -0.000 0.000
1641 1639 1648 1650 3 0.628 1.883 0.000 -2.510 -0.000 0.000
1641 1639 1648 1651 3 2.301 -1.464 0.837 -1.674 -0.000 0.000
1648 1639 1641 1642 3 0.628 1.883 0.000 -2.510 -0.000 0.000
1648 1639 1641 1643 3 0.628 1.883 0.000 -2.510 -0.000 0.000
1648 1639 1641 1644 3 2.301 -1.464 0.837 -1.674 -0.000 0.000
1642 1641 1644 1645 3 0.628 1.883 0.000 -2.510 -0.000 0.000
1642 1641 1644 1646 3 0.628 1.883 0.000 -2.510 -0.000 0.000
1642 1641 1644 1647 3 0.628 1.883 0.000 -2.510 -0.000 0.000
1643 1641 1644 1645 3 0.628 1.883 0.000 -2.510 -0.000 0.000
1643 1641 1644 1646 3 0.628 1.883 0.000 -2.510 -0.000 0.000
1643 1641 1644 1647 3 0.628 1.883 0.000 -2.510 -0.000 0.000
1648 1651 1654 1655 3 0.628 1.883 0.000 -2.510 -0.000 0.000
1648 1651 1654 1656 3 0.628 1.883 0.000 -2.510 -0.000 0.000
1648 1651 1654 1657 3 2.301 -1.464 0.837 -1.674 -0.000 0.000
1649 1648 1651 1652 3 0.628 1.883 0.000 -2.510 -0.000 0.000
1649 1648 1651 1653 3 0.628 1.883 0.000 -2.510 -0.000 0.000
1649 1648 1651 1654 3 0.628 1.883 0.000 -2.510 -0.000 0.000
1650 1648 1651 1652 3 0.628 1.883 0.000 -2.510 -0.000 0.000
1650 1648 1651 1653 3 0.628 1.883 0.000 -2.510 -0.000 0.000
1650 1648 1651 1654 3 0.628 1.883 0.000 -2.510 -0.000 0.000
1651 1654 1657 1658 3 0.628 1.883 0.000 -2.510 -0.000 0.000
1651 1654 1657 1659 3 0.628 1.883 0.000 -2.510 -0.000 0.000
1651 1654 1657 1660 3 0.628 1.883 0.000 -2.510 -0.000 0.000
1652 1651 1654 1655 3 0.628 1.883 0.000 -2.510 -0.000 0.000
1652 1651 1654 1656 3 0.628 1.883 0.000 -2.510 -0.000 0.000
1652 1651 1654 1657 3 0.628 1.883 0.000 -2.510 -0.000 0.000
1653 1651 1654 1655 3 0.628 1.883 0.000 -2.510 -0.000 0.000
1653 1651 1654 1656 3 0.628 1.883 0.000 -2.510 -0.000 0.000
1653 1651 1654 1657 3 0.628 1.883 0.000 -2.510 -0.000 0.000
1655 1654 1657 1658 3 0.628 1.883 0.000 -2.510 -0.000 0.000
1655 1654 1657 1659 3 0.628 1.883 0.000 -2.510 -0.000 0.000
1655 1654 1657 1660 3 0.628 1.883 0.000 -2.510 -0.000 0.000
1656 1654 1657 1658 3 0.628 1.883 0.000 -2.510 -0.000 0.000
1656 1654 1657 1659 3 0.628 1.883 0.000 -2.510 -0.000 0.000
1656 1654 1657 1660 3 0.628 1.883 0.000 -2.510 -0.000 0.000
1661 1662 1665 1666 3 -0.778 -2.335 0.000 3.113 -0.000 0.000
1661 1662 1665 1669 3 -0.778 -2.335 0.000 3.113 -0.000 0.000
1662 1665 1666 1667 3 58.576 0.000 -58.576 -0.000 -0.000 0.000
1662 1665 1666 1668 3 58.576 0.000 -58.576 -0.000 -0.000 0.000
1662 1665 1666 1701 3 2.928800 -1.464400 0.209200 -1.673600 0.000000 0.000000
1662 1665 1669 1670 3 1.789 -5.052 -0.962 4.226 -0.000 0.000
1662 1665 1669 1671 3 1.789 -5.052 -0.962 4.226 -0.000 0.000
1663 1662 1665 1666 3 -0.778 -2.335 0.000 3.113 -0.000 0.000
1663 1662 1665 1669 3 -0.778 -2.335 0.000 3.113 -0.000 0.000
1664 1662 1665 1666 3 -0.778 -2.335 0.000 3.113 -0.000 0.000
1664 1662 1665 1669 3 -0.778 -2.335 0.000 3.113 -0.000 0.000
1666 1662 1665 1669 4 180.000 10.460 2
1665 1666 1701 1698 3 2.928800 -1.464400 0.209200 -1.673600 0.000000 0.000000
1665 1666 1701 1702 3 2.928800 -1.464400 0.209200 -1.673600 0.000000 0.000000
1665 1666 1701 1705 3 2.928800 -1.464400 0.209200 -1.673600 0.000000 0.000000
1665 1669 1671 1672 3 31.206 -9.768 -21.439 -0.000 -0.000 0.000
1666 1665 1669 1670 3 30.334 -5.230 -25.104 -0.000 -0.000 0.000
1666 1665 1669 1671 3 -5.858 -6.694 12.552 -0.000 -0.000 0.000
1667 1665 1666 1668 4 180.000 10.460 2
1669 1665 1666 1667 3 58.576 0.000 -58.576 -0.000 -0.000 0.000
1669 1665 1666 1668 3 58.576 0.000 -58.576 -0.000 -0.000 0.000
1669 1665 1666 1701 3 2.928800 -1.464400 0.209200 -1.673600 0.000000 0.000000
1670 1665 1669 1671 4 180.000 43.932 2
1666 1701 1702 1703 3 0.627600 1.882800 0.000000 -2.510400 0.000000 0.000000
1666 1701 1702 1704 3 0.627600 1.882800 0.000000 -2.510400 0.000000 0.000000
1666 1701 1702 1737 3 2.928800 -1.464400 0.209200 -1.673600 0.000000 0.000000
1666 1701 1705 1706 3 2.874410 0.581580 2.092000 -5.547990 0.000000 0.000000
1666 1701 1705 1707 3 2.874410 0.581580 2.092000 -5.547990 0.000000 0.000000
1667 1666 1701 1698 3 0.627600 1.882800 0.000000 -2.510400 0.000000 0.000000
1667 1666 1701 1702 3 0.627600 1.882800 0.000000 -2.510400 0.000000 0.000000
1667 1666 1701 1705 3 0.627600 1.882800 0.000000 -2.510400 0.000000 0.000000
1668 1666 1701 1698 3 0.627600 1.882800 0.000000 -2.510400 0.000000 0.000000
1668 1666 1701 1702 3 0.627600 1.882800 0.000000 -2.510400 0.000000 0.000000
1668 1666 1701 1705 3 0.627600 1.882800 0.000000 -2.510400 0.000000 0.000000
1697 1698 1701 1666 3 0.627600 1.882800 0.000000 -2.510400 0.000000 0.000000
1699 1698 1701 1666 3 0.627600 1.882800 0.000000 -2.510400 0.000000 0.000000
1700 1698 1701 1666 3 0.627600 1.882800 0.000000 -2.510400 0.000000 0.000000
1669 1671 1672 1673 3 0.414 1.243 0.000 -1.657 -0.000 0.000
1669 1671 1672 1674 3 0.414 1.243 0.000 -1.657 -0.000 0.000
1669 1671 1672 1675 3 -2.197 5.201 0.527 -3.531 -0.000 0.000
1670 1669 1671 1672 3 21.439 0.000 -21.439 -0.000 -0.000 0.000
1671 1672 1675 1676 3 0.979 2.937 0.000 -3.916 -0.000 0.000
1671 1672 1675 1677 3 2.874 0.582 2.092 -5.548 -0.000 0.000
1671 1672 1675 1684 3 2.874 0.582 2.092 -5.548 -0.000 0.000
1672 1675 1677 1678 3 0.628 1.883 0.000 -2.510 -0.000 0.000
1672 1675 1677 1679 3 0.628 1.883 0.000 -2.510 -0.000 0.000
1672 1675 1677 1680 3 2.301 -1.464 0.837 -1.674 -0.000 0.000
1672 1675 1684 1685 3 0.628 1.883 0.000 -2.510 -0.000 0.000
1672 1675 1684 1686 3 0.628 1.883 0.000 -2.510 -0.000 0.000
1672 1675 1684 1687 3 2.301 -1.464 0.837 -1.674 -0.000 0.000
1673 1672 1675 1676 3 0.628 1.883 0.000 -2.510 -0.000 0.000
1673 1672 1675 1677 3 0.628 1.883 0.000 -2.510 -0.000 0.000
1673 1672 1675 1684 3 0.628 1.883 0.000 -2.510 -0.000 0.000
1674 1672 1675 1676 3 0.628 1.883 0.000 -2.510 -0.000 0.000
1674 1672 1675 1677 3 0.628 1.883 0.000 -2.510 -0.000 0.000
1674 1672 1675 1684 3 0.628 1.883 0.000 -2.510 -0.000 0.000
1675 1677 1680 1681 3 0.628 1.883 0.000 -2.510 -0.000 0.000
1675 1677 1680 1682 3 0.628 1.883 0.000 -2.510 -0.000 0.000
1675 1677 1680 1683 3 0.628 1.883 0.000 -2.510 -0.000 0.000
1675 1684 1687 1688 3 0.628 1.883 0.000 -2.510 -0.000 0.000
1675 1684 1687 1689 3 0.628 1.883 0.000 -2.510 -0.000 0.000
1675 1684 1687 1690 3 2.301 -1.464 0.837 -1.674 -0.000 0.000
1676 1675 1677 1678 3 0.628 1.883 0.000 -2.510 -0.000 0.000
1676 1675 1677 1679 3 0.628 1.883 0.000 -2.510 -0.000 0.000
1676 1675 1677 1680 3 0.628 1.883 0.000 -2.510 -0.000 0.000
1676 1675 1684 1685 3 0.628 1.883 0.000 -2.510 -0.000 0.000
1676 1675 1684 1686 3 0.628 1.883 0.000 -2.510 -0.000 0.000
1676 1675 1684 1687 3 0.628 1.883 0.000 -2.510 -0.000 0.000
1677 1675 1684 1685 3 0.628 1.883 0.000 -2.510 -0.000 0.000
1677 1675 1684 1686 3 0.628 1.883 0.000 -2.510 -0.000 0.000
1677 1675 1684 1687 3 2.301 -1.464 0.837 -1.674 -0.000 0.000
1684 1675 1677 1678 3 0.628 1.883 0.000 -2.510 -0.000 0.000
1684 1675 1677 1679 3 0.628 1.883 0.000 -2.510 -0.000 0.000
1684 1675 1677 1680 3 2.301 -1.464 0.837 -1.674 -0.000 0.000
1678 1677 1680 1681 3 0.628 1.883 0.000 -2.510 -0.000 0.000
1678 1677 1680 1682 3 0.628 1.883 0.000 -2.510 -0.000 0.000
1678 1677 1680 1683 3 0.628 1.883 0.000 -2.510 -0.000 0.000
1679 1677 1680 1681 3 0.628 1.883 0.000 -2.510 -0.000 0.000
1679 1677 1680 1682 3 0.628 1.883 0.000 -2.510 -0.000 0.000
1679 1677 1680 1683 3 0.628 1.883 0.000 -2.510 -0.000 0.000
1684 1687 1690 1691 3 0.628 1.883 0.000 -2.510 -0.000 0.000
1684 1687 1690 1692 3 0.628 1.883 0.000 -2.510 -0.000 0.000
1684 1687 1690 1693 3 2.301 -1.464 0.837 -1.674 -0.000 0.000
1685 1684 1687 1688 3 0.628 1.883 0.000 -2.510 -0.000 0.000
1685 1684 1687 1689 3 0.628 1.883 0.000 -2.510 -0.000 0.000
1685 1684 1687 1690 3 0.628 1.883 0.000 -2.510 -0.000 0.000
1686 1684 1687 1688 3 0.628 1.883 0.000 -2.510 -0.000 0.000
1686 1684 1687 1689 3 0.628 1.883 0.000 -2.510 -0.000 0.000
1686 1684 1687 1690 3 0.628 1.883 0.000 -2.510 -0.000 0.000
1687 1690 1693 1694 3 0.628 1.883 0.000 -2.510 -0.000 0.000
1687 1690 1693 1695 3 0.628 1.883 0.000 -2.510 -0.000 0.000
1687 1690 1693 1696 3 0.628 1.883 0.000 -2.510 -0.000 0.000
1688 1687 1690 1691 3 0.628 1.883 0.000 -2.510 -0.000 0.000
1688 1687 1690 1692 3 0.628 1.883 0.000 -2.510 -0.000 0.000
1688 1687 1690 1693 3 0.628 1.883 0.000 -2.510 -0.000 0.000
1689 1687 1690 1691 3 0.628 1.883 0.000 -2.510 -0.000 0.000
1689 1687 1690 1692 3 0.628 1.883 0.000 -2.510 -0.000 0.000
1689 1687 1690 1693 3 0.628 1.883 0.000 -2.510 -0.000 0.000
1691 1690 1693 1694 3 0.628 1.883 0.000 -2.510 -0.000 0.000
1691 1690 1693 1695 3 0.628 1.883 0.000 -2.510 -0.000 0.000
1691 1690 1693 1696 3 0.628 1.883 0.000 -2.510 -0.000 0.000
1692 1690 1693 1694 3 0.628 1.883 0.000 -2.510 -0.000 0.000
1692 1690 1693 1695 3 0.628 1.883 0.000 -2.510 -0.000 0.000
1692 1690 1693 1696 3 0.628 1.883 0.000 -2.510 -0.000 0.000
1697 1698 1701 1702 3 -0.778 -2.335 0.000 3.113 -0.000 0.000
1697 1698 1701 1705 3 -0.778 -2.335 0.000 3.113 -0.000 0.000
1698 1701 1702 1703 3 58.576 0.000 -58.576 -0.000 -0.000 0.000
1698 1701 1702 1704 3 58.576 0.000 -58.576 -0.000 -0.000 0.000
1698 1701 1702 1737 3 2.928800 -1.464400 0.209200 -1.673600 0.000000 0.000000
1698 1701 1705 1706 3 1.789 -5.052 -0.962 4.226 -0.000 0.000
1698 1701 1705 1707 3 1.789 -5.052 -0.962 4.226 -0.000 0.000
1699 1698 1701 1702 3 -0.778 -2.335 0.000 3.113 -0.000 0.000
1699 1698 1701 1705 3 -0.778 -2.335 0.000 3.113 -0.000 0.000
1700 1698 1701 1702 3 -0.778 -2.335 0.000 3.113 -0.000 0.000
1700 1698 1701 1705 3 -0.778 -2.335 0.000 3.113 -0.000 0.000
1702 1698 1701 1705 4 180.000 10.460 2
1701 1702 1737 1734 3 2.928800 -1.464400 0.209200 -1.673600 0.000000 0.000000
1701 1702 1737 1738 3 2.928800 -1.464400 0.209200 -1.673600 0.000000 0.000000
1701 1702 1737 1741 3 2.928800 -1.464400 0.209200 -1.673600 0.000000 0.000000
1701 1705 1707 1708 3 31.206 -9.768 -21.439 -0.000 -0.000 0.000
1702 1701 1705 1706 3 30.334 -5.230 -25.104 -0.000 -0.000 0.000
1702 1701 1705 1707 3 -5.858 -6.694 12.552 -0.000 -0.000 0.000
1703 1701 1702 1704 4 180.000 10.460 2
1705 1701 1702 1703 3 58.576 0.000 -58.576 -0.000 -0.000 0.000
1705 1701 1702 1704 3 58.576 0.000 -58.576 -0.000 -0.000 0.000
1705 1701 1702 1737 3 2.928800 -1.464400 0.209200 -1.673600 0.000000 0.000000
1706 1701 1705 1707 4 180.000 43.932 2
1702 1737 1738 1739 3 0.627600 1.882800 0.000000 -2.510400 0.000000 0.000000
1702 1737 1738 1740 3 0.627600 1.882800 0.000000 -2.510400 0.000000 0.000000
1702 1737 1738 1785 3 2.928800 -1.464400 0.209200 -1.673600 0.000000 0.000000
1702 1737 1741 1742 3 2.874410 0.581580 2.092000 -5.547990 0.000000 0.000000
1702 1737 1741 1743 3 2.874410 0.581580 2.092000 -5.547990 0.000000 0.000000
1703 1702 1737 1734 3 0.627600 1.882800 0.000000 -2.510400 0.000000 0.000000
1703 1702 1737 1738 3 0.627600 1.882800 0.000000 -2.510400 0.000000 0.000000
1703 1702 1737 1741 3 0.627600 1.882800 0.000000 -2.510400 0.000000 0.000000
1704 1702 1737 1734 3 0.627600 1.882800 0.000000 -2.510400 0.000000 0.000000
1704 1702 1737 1738 3 0.627600 1.882800 0.000000 -2.510400 0.000000 0.000000
1704 1702 1737 1741 3 0.627600 1.882800 0.000000 -2.510400 0.000000 0.000000
1733 1734 1737 1702 3 0.627600 1.882800 0.000000 -2.510400 0.000000 0.000000
1735 1734 1737 1702 3 0.627600 1.882800 0.000000 -2.510400 0.000000 0.000000
1736 1734 1737 1702 3 0.627600 1.882800 0.000000 -2.510400 0.000000 0.000000
1705 1707 1708 1709 3 0.414 1.243 0.000 -1.657 -0.000 0.000
1705 1707 1708 1710 3 0.414 1.243 0.000 -1.657 -0.000 0.000
1705 1707 1708 1711 3 -2.197 5.201 0.527 -3.531 -0.000 0.000
1706 1705 1707 1708 3 21.439 0.000 -21.439 -0.000 -0.000 0.000
1707 1708 1711 1712 3 0.979 2.937 0.000 -3.916 -0.000 0.000
1707 1708 1711 1713 3 2.874 0.582 2.092 -5.548 -0.000 0.000
1707 1708 1711 1720 3 2.874 0.582 2.092 -5.548 -0.000 0.000
1708 1711 1713 1714 3 0.628 1.883 0.000 -2.510 -0.000 0.000
1708 1711 1713 1715 3 0.628 1.883 0.000 -2.510 -0.000 0.000
1708 1711 1713 1716 3 2.301 -1.464 0.837 -1.674 -0.000 0.000
1708 1711 1720 1721 3 0.628 1.883 0.000 -2.510 -0.000 0.000
1708 1711 1720 1722 3 0.628 1.883 0.000 -2.510 -0.000 0.000
1708 1711 1720 1723 3 2.301 -1.464 0.837 -1.674 -0.000 0.000
1709 1708 1711 1712 3 0.628 1.883 0.000 -2.510 -0.000 0.000
1709 1708 1711 1713 3 0.628 1.883 0.000 -2.510 -0.000 0.000
1709 1708 1711 1720 3 0.628 1.883 0.000 -2.510 -0.000 0.000
1710 1708 1711 1712 3 0.628 1.883 0.000 -2.510 -0.000 0.000
1710 1708 1711 1713 3 0.628 1.883 0.000 -2.510 -0.000 0.000
1710 1708 1711 1720 3 0.628 1.883 0.000 -2.510 -0.000 0.000
1711 1713 1716 1717 3 0.628 1.883 0.000 -2.510 -0.000 0.000
1711 1713 1716 1718 3 0.628 1.883 0.000 -2.510 -0.000 0.000
1711 1713 1716 1719 3 0.628 1.883 0.000 -2.510 -0.000 0.000
1711 1720 1723 1724 3 0.628 1.883 0.000 -2.510 -0.000 0.000
1711 1720 1723 1725 3 0.628 1.883 0.000 -2.510 -0.000 0.000
1711 1720 1723 1726 3 2.301 -1.464 0.837 -1.674 -0.000 0.000
1712 1711 1713 1714 3 0.628 1.883 0.000 -2.510 -0.000 0.000
1712 1711 1713 1715 3 0.628 1.883 0.000 -2.510 -0.000 0.000
1712 1711 1713 1716 3 0.628 1.883 0.000 -2.510 -0.000 0.000
1712 1711 1720 1721 3 0.628 1.883 0.000 -2.510 -0.000 0.000
1712 1711 1720 1722 3 0.628 1.883 0.000 -2.510 -0.000 0.000
1712 1711 1720 1723 3 0.628 1.883 0.000 -2.510 -0.000 0.000
1713 1711 1720 1721 3 0.628 1.883 0.000 -2.510 -0.000 0.000
1713 1711 1720 1722 3 0.628 1.883 0.000 -2.510 -0.000 0.000
1713 1711 1720 1723 3 2.301 -1.464 0.837 -1.674 -0.000 0.000
1720 1711 1713 1714 3 0.628 1.883 0.000 -2.510 -0.000 0.000
1720 1711 1713 1715 3 0.628 1.883 0.000 -2.510 -0.000 0.000
1720 1711 1713 1716 3 2.301 -1.464 0.837 -1.674 -0.000 0.000
1714 1713 1716 1717 3 0.628 1.883 0.000 -2.510 -0.000 0.000
1714 1713 1716 1718 3 0.628 1.883 0.000 -2.510 -0.000 0.000
1714 1713 1716 1719 3 0.628 1.883 0.000 -2.510 -0.000 0.000
1715 1713 1716 1717 3 0.628 1.883 0.000 -2.510 -0.000 0.000
1715 1713 1716 1718 3 0.628 1.883 0.000 -2.510 -0.000 0.000
1715 1713 1716 1719 3 0.628 1.883 0.000 -2.510 -0.000 0.000
1720 1723 1726 1727 3 0.628 1.883 0.000 -2.510 -0.000 0.000
1720 1723 1726 1728 3 0.628 1.883 0.000 -2.510 -0.000 0.000
1720 1723 1726 1729 3 2.301 -1.464 0.837 -1.674 -0.000 0.000
1721 1720 1723 1724 3 0.628 1.883 0.000 -2.510 -0.000 0.000
1721 1720 1723 1725 3 0.628 1.883 0.000 -2.510 -0.000 0.000
1721 1720 1723 1726 3 0.628 1.883 0.000 -2.510 -0.000 0.000
1722 1720 1723 1724 3 0.628 1.883 0.000 -2.510 -0.000 0.000
1722 1720 1723 1725 3 0.628 1.883 0.000 -2.510 -0.000 0.000
1722 1720 1723 1726 3 0.628 1.883 0.000 -2.510 -0.000 0.000
1723 1726 1729 1730 3 0.628 1.883 0.000 -2.510 -0.000 0.000
1723 1726 1729 1731 3 0.628 1.883 0.000 -2.510 -0.000 0.000
1723 1726 1729 1732 3 0.628 1.883 0.000 -2.510 -0.000 0.000
1724 1723 1726 1727 3 0.628 1.883 0.000 -2.510 -0.000 0.000
1724 1723 1726 1728 3 0.628 1.883 0.000 -2.510 -0.000 0.000
1724 1723 1726 1729 3 0.628 1.883 0.000 -2.510 -0.000 0.000
1725 1723 1726 1727 3 0.628 1.883 0.000 -2.510 -0.000 0.000
1725 1723 1726 1728 3 0.628 1.883 0.000 -2.510 -0.000 0.000
1725 1723 1726 1729 3 0.628 1.883 0.000 -2.510 -0.000 0.000
1727 1726 1729 1730 3 0.628 1.883 0.000 -2.510 -0.000 0.000
1727 1726 1729 1731 3 0.628 1.883 0.000 -2.510 -0.000 0.000
1727 1726 1729 1732 3 0.628 1.883 0.000 -2.510 -0.000 0.000
1728 1726 1729 1730 3 0.628 1.883 0.000 -2.510 -0.000 0.000
1728 1726 1729 1731 3 0.628 1.883 0.000 -2.510 -0.000 0.000
1728 1726 1729 1732 3 0.628 1.883 0.000 -2.510 -0.000 0.000
1733 1734 1737 1738 3 -0.778 -2.335 0.000 3.113 -0.000 0.000
1733 1734 1737 1741 3 -0.778 -2.335 0.000 3.113 -0.000 0.000
1734 1737 1738 1739 3 58.576 0.000 -58.576 -0.000 -0.000 0.000
1734 1737 1738 1740 3 58.576 0.000 -58.576 -0.000 -0.000 0.000
1734 1737 1738 1785 3 2.928800 -1.464400 0.209200 -1.673600 0.000000 0.000000
1734 1737 1741 1742 3 1.789 -5.052 -0.962 4.226 -0.000 0.000
1734 1737 1741 1743 3 1.789 -5.052 -0.962 4.226 -0.000 0.000
1735 1734 1737 1738 3 -0.778 -2.335 0.000 3.113 -0.000 0.000
1735 1734 1737 1741 3 -0.778 -2.335 0.000 3.113 -0.000 0.000
1736 1734 1737 1738 3 -0.778 -2.335 0.000 3.113 -0.000 0.000
1736 1734 1737 1741 3 -0.778 -2.335 0.000 3.113 -0.000 0.000
1738 1734 1737 1741 4 180.000 10.460 2
1737 1738 1785 1782 3 2.928800 -1.464400 0.209200 -1.673600 0.000000 0.000000
1737 1738 1785 1786 3 2.928800 -1.464400 0.209200 -1.673600 0.000000 0.000000
1737 1738 1785 1789 3 2.928800 -1.464400 0.209200 -1.673600 0.000000 0.000000
1737 1741 1743 1744 3 31.206 -9.768 -21.439 -0.000 -0.000 0.000
1738 1737 1741 1742 3 30.334 -5.230 -25.104 -0.000 -0.000 0.000
1738 1737 1741 1743 3 -5.858 -6.694 12.552 -0.000 -0.000 0.000
1739 1737 1738 1740 4 180.000 10.460 2
1741 1737 1738 1739 3 58.576 0.000 -58.576 -0.000 -0.000 0.000
1741 1737 1738 1740 3 58.576 0.000 -58.576 -0.000 -0.000 0.000
1741 1737 1738 1785 3 2.928800 -1.464400 0.209200 -1.673600 0.000000 0.000000
1742 1737 1741 1743 4 180.000 43.932 2
1738 1785 1786 1787 3 0.627600 1.882800 0.000000 -2.510400 0.000000 0.000000
1738 1785 1786 1788 3 0.627600 1.882800 0.000000 -2.510400 0.000000 0.000000
1738 1785 1786 1833 3 2.928800 -1.464400 0.209200 -1.673600 0.000000 0.000000
1738 1785 1789 1790 3 2.874410 0.581580 2.092000 -5.547990 0.000000 0.000000
1738 1785 1789 1791 3 2.874410 0.581580 2.092000 -5.547990 0.000000 0.000000
1739 1738 1785 1782 3 0.627600 1.882800 0.000000 -2.510400 0.000000 0.000000
1739 1738 1785 1786 3 0.627600 1.882800 0.000000 -2.510400 0.000000 0.000000
1739 1738 1785 1789 3 0.627600 1.882800 0.000000 -2.510400 0.000000 0.000000
1740 1738 1785 1782 3 0.627600 1.882800 0.000000 -2.510400 0.000000 0.000000
1740 1738 1785 1786 3 0.627600 1.882800 0.000000 -2.510400 0.000000 0.000000
1740 1738 1785 1789 3 0.627600 1.882800 0.000000 -2.510400 0.000000 0.000000
1781 1782 1785 1738 3 0.627600 1.882800 0.000000 -2.510400 0.000000 0.000000
1783 1782 1785 1738 3 0.627600 1.882800 0.000000 -2.510400 0.000000 0.000000
1784 1782 1785 1738 3 0.627600 1.882800 0.000000 -2.510400 0.000000 0.000000
1741 1743 1744 1745 3 0.414 1.243 0.000 -1.657 -0.000 0.000
1741 1743 1744 1746 3 0.414 1.243 0.000 -1.657 -0.000 0.000
1741 1743 1744 1747 3 -2.197 5.201 0.527 -3.531 -0.000 0.000
1742 1741 1743 1744 3 21.439 0.000 -21.439 -0.000 -0.000 0.000
1743 1744 1747 1748 3 0.979 2.937 0.000 -3.916 -0.000 0.000
1743 1744 1747 1749 3 0.979 2.937 0.000 -3.916 -0.000 0.000
1743 1744 1747 1750 3 2.874 0.582 2.092 -5.548 -0.000 0.000
1744 1747 1750 1751 3 0.628 1.883 0.000 -2.510 -0.000 0.000
1744 1747 1750 1752 3 0.628 1.883 0.000 -2.510 -0.000 0.000
1744 1747 1750 1753 3 2.301 -1.464 0.837 -1.674 -0.000 0.000
1745 1744 1747 1748 3 0.628 1.883 0.000 -2.510 -0.000 0.000
1745 1744 1747 1749 3 0.628 1.883 0.000 -2.510 -0.000 0.000
1745 1744 1747 1750 3 0.628 1.883 0.000 -2.510 -0.000 0.000
1746 1744 1747 1748 3 0.628 1.883 0.000 -2.510 -0.000 0.000
1746 1744 1747 1749 3 0.628 1.883 0.000 -2.510 -0.000 0.000
1746 1744 1747 1750 3 0.628 1.883 0.000 -2.510 -0.000 0.000
1747 1750 1753 1754 3 0.628 1.883 0.000 -2.510 -0.000 0.000
1747 1750 1753 1755 3 0.628 1.883 0.000 -2.510 -0.000 0.000
1747 1750 1753 1756 3 2.301 -1.464 0.837 -1.674 -0.000 0.000
1748 1747 1750 1751 3 0.628 1.883 0.000 -2.510 -0.000 0.000
1748 1747 1750 1752 3 0.628 1.883 0.000 -2.510 -0.000 0.000
1748 1747 1750 1753 3 0.628 1.883 0.000 -2.510 -0.000 0.000
1749 1747 1750 1751 3 0.628 1.883 0.000 -2.510 -0.000 0.000
1749 1747 1750 1752 3 0.628 1.883 0.000 -2.510 -0.000 0.000
1749 1747 1750 1753 3 0.628 1.883 0.000 -2.510 -0.000 0.000
1750 1753 1756 1757 3 0.628 1.883 0.000 -2.510 -0.000 0.000
1750 1753 1756 1758 3 0.628 1.883 0.000 -2.510 -0.000 0.000
1750 1753 1756 1759 3 2.301 -1.464 0.837 -1.674 -0.000 0.000
1751 1750 1753 1754 3 0.628 1.883 0.000 -2.510 -0.000 0.000
1751 1750 1753 1755 3 0.628 1.883 0.000 -2.510 -0.000 0.000
1751 1750 1753 1756 3 0.628 1.883 0.000 -2.510 -0.000 0.000
1752 1750 1753 1754 3 0.628 1.883 0.000 -2.510 -0.000 0.000
1752 1750 1753 1755 3 0.628 1.883 0.000 -2.510 -0.000 0.000
1752 1750 1753 1756 3 0.628 1.883 0.000 -2.510 -0.000 0.000
1753 1756 1759 1760 3 0.628 1.883 0.000 -2.510 -0.000 0.000
1753 1756 1759 1761 3 0.628 1.883 0.000 -2.510 -0.000 0.000
1753 1756 1759 1762 3 2.301 -1.464 0.837 -1.674 -0.000 0.000
1754 1753 1756 1757 3 0.628 1.883 0.000 -2.510 -0.000 0.000
1754 1753 1756 1758 3 0.628 1.883 0.000 -2.510 -0.000 0.000
1754 1753 1756 1759 3 0.628 1.883 0.000 -2.510 -0.000 0.000
1755 1753 1756 1757 3 0.628 1.883 0.000 -2.510 -0.000 0.000
1755 1753 1756 1758 3 0.628 1.883 0.000 -2.510 -0.000 0.000
1755 1753 1756 1759 3 0.628 1.883 0.000 -2.510 -0.000 0.000
1756 1759 1762 1763 3 0.628 1.883 0.000 -2.510 -0.000 0.000
1756 1759 1762 1764 3 0.628 1.883 0.000 -2.510 -0.000 0.000
1756 1759 1762 1765 3 2.301 -1.464 0.837 -1.674 -0.000 0.000
1757 1756 1759 1760 3 0.628 1.883 0.000 -2.510 -0.000 0.000
1757 1756 1759 1761 3 0.628 1.883 0.000 -2.510 -0.000 0.000
1757 1756 1759 1762 3 0.628 1.883 0.000 -2.510 -0.000 0.000
1758 1756 1759 1760 3 0.628 1.883 0.000 -2.510 -0.000 0.000
1758 1756 1759 1761 3 0.628 1.883 0.000 -2.510 -0.000 0.000
1758 1756 1759 1762 3 0.628 1.883 0.000 -2.510 -0.000 0.000
1759 1762 1765 1766 3 0.628 1.883 0.000 -2.510 -0.000 0.000
1759 1762 1765 1767 3 0.628 1.883 0.000 -2.510 -0.000 0.000
1759 1762 1765 1768 3 2.301 -1.464 0.837 -1.674 -0.000 0.000
1760 1759 1762 1763 3 0.628 1.883 0.000 -2.510 -0.000 0.000
1760 1759 1762 1764 3 0.628 1.883 0.000 -2.510 -0.000 0.000
1760 1759 1762 1765 3 0.628 1.883 0.000 -2.510 -0.000 0.000
1761 1759 1762 1763 3 0.628 1.883 0.000 -2.510 -0.000 0.000
1761 1759 1762 1764 3 0.628 1.883 0.000 -2.510 -0.000 0.000
1761 1759 1762 1765 3 0.628 1.883 0.000 -2.510 -0.000 0.000
1762 1765 1768 1769 3 0.628 1.883 0.000 -2.510 -0.000 0.000
1762 1765 1768 1770 3 0.628 1.883 0.000 -2.510 -0.000 0.000
1762 1765 1768 1771 3 2.301 -1.464 0.837 -1.674 -0.000 0.000
1763 1762 1765 1766 3 0.628 1.883 0.000 -2.510 -0.000 0.000
1763 1762 1765 1767 3 0.628 1.883 0.000 -2.510 -0.000 0.000
1763 1762 1765 1768 3 0.628 1.883 0.000 -2.510 -0.000 0.000
1764 1762 1765 1766 3 0.628 1.883 0.000 -2.510 -0.000 0.000
1764 1762 1765 1767 3 0.628 1.883 0.000 -2.510 -0.000 0.000
1764 1762 1765 1768 3 0.628 1.883 0.000 -2.510 -0.000 0.000
1765 1768 1771 1772 3 0.628 1.883 0.000 -2.510 -0.000 0.000
1765 1768 1771 1773 3 0.628 1.883 0.000 -2.510 -0.000 0.000
1765 1768 1771 1774 3 2.301 -1.464 0.837 -1.674 -0.000 0.000
1766 1765 1768 1769 3 0.628 1.883 0.000 -2.510 -0.000 0.000
1766 1765 1768 1770 3 0.628 1.883 0.000 -2.510 -0.000 0.000
1766 1765 1768 1771 3 0.628 1.883 0.000 -2.510 -0.000 0.000
1767 1765 1768 1769 3 0.628 1.883 0.000 -2.510 -0.000 0.000
1767 1765 1768 1770 3 0.628 1.883 0.000 -2.510 -0.000 0.000
1767 1765 1768 1771 3 0.628 1.883 0.000 -2.510 -0.000 0.000
1768 1771 1774 1775 3 0.628 1.883 0.000 -2.510 -0.000 0.000
1768 1771 1774 1776 3 0.628 1.883 0.000 -2.510 -0.000 0.000
1768 1771 1774 1777 3 2.301 -1.464 0.837 -1.674 -0.000 0.000
1769 1768 1771 1772 3 0.628 1.883 0.000 -2.510 -0.000 0.000
1769 1768 1771 1773 3 0.628 1.883 0.000 -2.510 -0.000 0.000
1769 1768 1771 1774 3 0.628 1.883 0.000 -2.510 -0.000 0.000
1770 1768 1771 1772 3 0.628 1.883 0.000 -2.510 -0.000 0.000
1770 1768 1771 1773 3 0.628 1.883 0.000 -2.510 -0.000 0.000
1770 1768 1771 1774 3 0.628 1.883 0.000 -2.510 -0.000 0.000
1771 1774 1777 1778 3 0.628 1.883 0.000 -2.510 -0.000 0.000
1771 1774 1777 1779 3 0.628 1.883 0.000 -2.510 -0.000 0.000
1771 1774 1777 1780 3 0.628 1.883 0.000 -2.510 -0.000 0.000
1772 1771 1774 1775 3 0.628 1.883 0.000 -2.510 -0.000 0.000
1772 1771 1774 1776 3 0.628 1.883 0.000 -2.510 -0.000 0.000
1772 1771 1774 1777 3 0.628 1.883 0.000 -2.510 -0.000 0.000
1773 1771 1774 1775 3 0.628 1.883 0.000 -2.510 -0.000 0.000
1773 1771 1774 1776 3 0.628 1.883 0.000 -2.510 -0.000 0.000
1773 1771 1774 1777 3 0.628 1.883 0.000 -2.510 -0.000 0.000
1775 1774 1777 1778 3 0.628 1.883 0.000 -2.510 -0.000 0.000
1775 1774 1777 1779 3 0.628 1.883 0.000 -2.510 -0.000 0.000
1775 1774 1777 1780 3 0.628 1.883 0.000 -2.510 -0.000 0.000
1776 1774 1777 1778 3 0.628 1.883 0.000 -2.510 -0.000 0.000
1776 1774 1777 1779 3 0.628 1.883 0.000 -2.510 -0.000 0.000
1776 1774 1777 1780 3 0.628 1.883 0.000 -2.510 -0.000 0.000
1781 1782 1785 1786 3 -0.778 -2.335 0.000 3.113 -0.000 0.000
1781 1782 1785 1789 3 -0.778 -2.335 0.000 3.113 -0.000 0.000
1782 1785 1786 1787 3 58.576 0.000 -58.576 -0.000 -0.000 0.000
1782 1785 1786 1788 3 58.576 0.000 -58.576 -0.000 -0.000 0.000
1782 1785 1786 1833 3 2.928800 -1.464400 0.209200 -1.673600 0.000000 0.000000
1782 1785 1789 1790 3 1.789 -5.052 -0.962 4.226 -0.000 0.000
1782 1785 1789 1791 3 1.789 -5.052 -0.962 4.226 -0.000 0.000
1783 1782 1785 1786 3 -0.778 -2.335 0.000 3.113 -0.000 0.000
1783 1782 1785 1789 3 -0.778 -2.335 0.000 3.113 -0.000 0.000
1784 1782 1785 1786 3 -0.778 -2.335 0.000 3.113 -0.000 0.000
1784 1782 1785 1789 3 -0.778 -2.335 0.000 3.113 -0.000 0.000
1786 1782 1785 1789 4 180.000 10.460 2
1785 1786 1833 1830 3 2.928800 -1.464400 0.209200 -1.673600 0.000000 0.000000
1785 1786 1833 1834 3 2.928800 -1.464400 0.209200 -1.673600 0.000000 0.000000
1785 1786 1833 1837 3 2.928800 -1.464400 0.209200 -1.673600 0.000000 0.000000
1785 1789 1791 1792 3 31.206 -9.768 -21.439 -0.000 -0.000 0.000
1786 1785 1789 1790 3 30.334 -5.230 -25.104 -0.000 -0.000 0.000
1786 1785 1789 1791 3 -5.858 -6.694 12.552 -0.000 -0.000 0.000
1787 1785 1786 1788 4 180.000 10.460 2
1789 1785 1786 1787 3 58.576 0.000 -58.576 -0.000 -0.000 0.000
1789 1785 1786 1788 3 58.576 0.000 -58.576 -0.000 -0.000 0.000
1789 1785 1786 1833 3 2.928800 -1.464400 0.209200 -1.673600 0.000000 0.000000
1790 1785 1789 1791 4 180.000 43.932 2
1786 1833 1834 1835 3 0.627600 1.882800 0.000000 -2.510400 0.000000 0.000000
1786 1833 1834 1836 3 0.627600 1.882800 0.000000 -2.510400 0.000000 0.000000
1786 1833 1834 1869 3 2.928800 -1.464400 0.209200 -1.673600 0.000000 0.000000
1786 1833 1837 1838 3 2.874410 0.581580 2.092000 -5.547990 0.000000 0.000000
1786 1833 1837 1839 3 2.874410 0.581580 2.092000 -5.547990 0.000000 0.000000
1787 1786 1833 1830 3 0.627600 1.882800 0.000000 -2.510400 0.000000 0.000000
1787 1786 1833 1834 3 0.627600 1.882800 0.000000 -2.510400 0.000000 0.000000
1787 1786 1833 1837 3 0.627600 1.882800 0.000000 -2.510400 0.000000 0.000000
1788 1786 1833 1830 3 0.627600 1.882800 0.000000 -2.510400 0.000000 0.000000
1788 1786 1833 1834 3 0.627600 1.882800 0.000000 -2.510400 0.000000 0.000000
1788 1786 1833 1837 3 0.627600 1.882800 0.000000 -2.510400 0.000000 0.000000
1829 1830 1833 1786 3 0.627600 1.882800 0.000000 -2.510400 0.000000 0.000000
1831 1830 1833 1786 3 0.627600 1.882800 0.000000 -2.510400 0.000000 0.000000
1832 1830 1833 1786 3 0.627600 1.882800 0.000000 -2.510400 0.000000 0.000000
1789 1791 1792 1793 3 0.414 1.243 0.000 -1.657 -0.000 0.000
1789 1791 1792 1794 3 0.414 1.243 0.000 -1.657 -0.000 0.000
1789 1791 1792 1795 3 -2.197 5.201 0.527 -3.531 -0.000 0.000
1790 1789 1791 1792 3 21.439 0.000 -21.439 -0.000 -0.000 0.000
1791 1792 1795 1796 3 0.979 2.937 0.000 -3.916 -0.000 0.000
1791 1792 1795 1797 3 0.979 2.937 0.000 -3.916 -0.000 0.000
1791 1792 1795 1798 3 2.874 0.582 2.092 -5.548 -0.000 0.000
1792 1795 1798 1799 3 0.628 1.883 0.000 -2.510 -0.000 0.000
1792 1795 1798 1800 3 0.628 1.883 0.000 -2.510 -0.000 0.000
1792 1795 1798 1801 3 2.301 -1.464 0.837 -1.674 -0.000 0.000
1793 1792 1795 1796 3 0.628 1.883 0.000 -2.510 -0.000 0.000
1793 1792 1795 1797 3 0.628 1.883 0.000 -2.510 -0.000 0.000
1793 1792 1795 1798 3 0.628 1.883 0.000 -2.510 -0.000 0.000
1794 1792 1795 1796 3 0.628 1.883 0.000 -2.510 -0.000 0.000
1794 1792 1795 1797 3 0.628 1.883 0.000 -2.510 -0.000 0.000
1794 1792 1795 1798 3 0.628 1.883 0.000 -2.510 -0.000 0.000
1795 1798 1801 1802 3 0.628 1.883 0.000 -2.510 -0.000 0.000
1795 1798 1801 1803 3 0.628 1.883 0.000 -2.510 -0.000 0.000
1795 1798 1801 1804 3 2.301 -1.464 0.837 -1.674 -0.000 0.000
1796 1795 1798 1799 3 0.628 1.883 0.000 -2.510 -0.000 0.000
1796 1795 1798 1800 3 0.628 1.883 0.000 -2.510 -0.000 0.000
1796 1795 1798 1801 3 0.628 1.883 0.000 -2.510 -0.000 0.000
1797 1795 1798 1799 3 0.628 1.883 0.000 -2.510 -0.000 0.000
1797 1795 1798 1800 3 0.628 1.883 0.000 -2.510 -0.000 0.000
1797 1795 1798 1801 3 0.628 1.883 0.000 -2.510 -0.000 0.000
1798 1801 1804 1805 3 0.628 1.883 0.000 -2.510 -0.000 0.000
1798 1801 1804 1806 3 0.628 1.883 0.000 -2.510 -0.000 0.000
1798 1801 1804 1807 3 2.301 -1.464 0.837 -1.674 -0.000 0.000
1799 1798 1801 1802 3 0.628 1.883 0.000 -2.510 -0.000 0.000
1799 1798 1801 1803 3 0.628 1.883 0.000 -2.510 -0.000 0.000
1799 1798 1801 1804 3 0.628 1.883 0.000 -2.510 -0.000 0.000
1800 1798 1801 1802 3 0.628 1.883 0.000 -2.510 -0.000 0.000
1800 1798 1801 1803 3 0.628 1.883 0.000 -2.510 -0.000 0.000
1800 1798 1801 1804 3 0.628 1.883 0.000 -2.510 -0.000 0.000
1801 1804 1807 1808 3 0.628 1.883 0.000 -2.510 -0.000 0.000
1801 1804 1807 1809 3 0.628 1.883 0.000 -2.510 -0.000 0.000
1801 1804 1807 1810 3 2.301 -1.464 0.837 -1.674 -0.000 0.000
1802 1801 1804 1805 3 0.628 1.883 0.000 -2.510 -0.000 0.000
1802 1801 1804 1806 3 0.628 1.883 0.000 -2.510 -0.000 0.000
1802 1801 1804 1807 3 0.628 1.883 0.000 -2.510 -0.000 0.000
1803 1801 1804 1805 3 0.628 1.883 0.000 -2.510 -0.000 0.000
1803 1801 1804 1806 3 0.628 1.883 0.000 -2.510 -0.000 0.000
1803 1801 1804 1807 3 0.628 1.883 0.000 -2.510 -0.000 0.000
1804 1807 1810 1811 3 0.628 1.883 0.000 -2.510 -0.000 0.000
1804 1807 1810 1812 3 0.628 1.883 0.000 -2.510 -0.000 0.000
1804 1807 1810 1813 3 2.301 -1.464 0.837 -1.674 -0.000 0.000
1805 1804 1807 1808 3 0.628 1.883 0.000 -2.510 -0.000 0.000
1805 1804 1807 1809 3 0.628 1.883 0.000 -2.510 -0.000 0.000
1805 1804 1807 1810 3 0.628 1.883 0.000 -2.510 -0.000 0.000
1806 1804 1807 1808 3 0.628 1.883 0.000 -2.510 -0.000 0.000
1806 1804 1807 1809 3 0.628 1.883 0.000 -2.510 -0.000 0.000
1806 1804 1807 1810 3 0.628 1.883 0.000 -2.510 -0.000 0.000
1807 1810 1813 1814 3 0.628 1.883 0.000 -2.510 -0.000 0.000
1807 1810 1813 1815 3 0.628 1.883 0.000 -2.510 -0.000 0.000
1807 1810 1813 1816 3 2.301 -1.464 0.837 -1.674 -0.000 0.000
1808 1807 1810 1811 3 0.628 1.883 0.000 -2.510 -0.000 0.000
1808 1807 1810 1812 3 0.628 1.883 0.000 -2.510 -0.000 0.000
1808 1807 1810 1813 3 0.628 1.883 0.000 -2.510 -0.000 0.000
1809 1807 1810 1811 3 0.628 1.883 0.000 -2.510 -0.000 0.000
1809 1807 1810 1812 3 0.628 1.883 0.000 -2.510 -0.000 0.000
1809 1807 1810 1813 3 0.628 1.883 0.000 -2.510 -0.000 0.000
1810 1813 1816 1817 3 0.628 1.883 0.000 -2.510 -0.000 0.000
1810 1813 1816 1818 3 0.628 1.883 0.000 -2.510 -0.000 0.000
1810 1813 1816 1819 3 2.301 -1.464 0.837 -1.674 -0.000 0.000
1811 1810 1813 1814 3 0.628 1.883 0.000 -2.510 -0.000 0.000
1811 1810 1813 1815 3 0.628 1.883 0.000 -2.510 -0.000 0.000
1811 1810 1813 1816 3 0.628 1.883 0.000 -2.510 -0.000 0.000
1812 1810 1813 1814 3 0.628 1.883 0.000 -2.510 -0.000 0.000
1812 1810 1813 1815 3 0.628 1.883 0.000 -2.510 -0.000 0.000
1812 1810 1813 1816 3 0.628 1.883 0.000 -2.510 -0.000 0.000
1813 1816 1819 1820 3 0.628 1.883 0.000 -2.510 -0.000 0.000
1813 1816 1819 1821 3 0.628 1.883 0.000 -2.510 -0.000 0.000
1813 1816 1819 1822 3 2.301 -1.464 0.837 -1.674 -0.000 0.000
1814 1813 1816 1817 3 0.628 1.883 0.000 -2.510 -0.000 0.000
1814 1813 1816 1818 3 0.628 1.883 0.000 -2.510 -0.000 0.000
1814 1813 1816 1819 3 0.628 1.883 0.000 -2.510 -0.000 0.000
1815 1813 1816 1817 3 0.628 1.883 0.000 -2.510 -0.000 0.000
1815 1813 1816 1818 3 0.628 1.883 0.000 -2.510 -0.000 0.000
1815 1813 1816 1819 3 0.628 1.883 0.000 -2.510 -0.000 0.000
1816 1819 1822 1823 3 0.628 1.883 0.000 -2.510 -0.000 0.000
1816 1819 1822 1824 3 0.628 1.883 0.000 -2.510 -0.000 0.000
1816 1819 1822 1825 3 2.301 -1.464 0.837 -1.674 -0.000 0.000
1817 1816 1819 1820 3 0.628 1.883 0.000 -2.510 -0.000 0.000
1817 1816 1819 1821 3 0.628 1.883 0.000 -2.510 -0.000 0.000
1817 1816 1819 1822 3 0.628 1.883 0.000 -2.510 -0.000 0.000
1818 1816 1819 1820 3 0.628 1.883 0.000 -2.510 -0.000 0.000
1818 1816 1819 1821 3 0.628 1.883 0.000 -2.510 -0.000 0.000
1818 1816 1819 1822 3 0.628 1.883 0.000 -2.510 -0.000 0.000
1819 1822 1825 1826 3 0.628 1.883 0.000 -2.510 -0.000 0.000
1819 1822 1825 1827 3 0.628 1.883 0.000 -2.510 -0.000 0.000
1819 1822 1825 1828 3 0.628 1.883 0.000 -2.510 -0.000 0.000
1820 1819 1822 1823 3 0.628 1.883 0.000 -2.510 -0.000 0.000
1820 1819 1822 1824 3 0.628 1.883 0.000 -2.510 -0.000 0.000
1820 1819 1822 1825 3 0.628 1.883 0.000 -2.510 -0.000 0.000
1821 1819 1822 1823 3 0.628 1.883 0.000 -2.510 -0.000 0.000
1821 1819 1822 1824 3 0.628 1.883 0.000 -2.510 -0.000 0.000
1821 1819 1822 1825 3 0.628 1.883 0.000 -2.510 -0.000 0.000
1823 1822 1825 1826 3 0.628 1.883 0.000 -2.510 -0.000 0.000
1823 1822 1825 1827 3 0.628 1.883 0.000 -2.510 -0.000 0.000
1823 1822 1825 1828 3 0.628 1.883 0.000 -2.510 -0.000 0.000
1824 1822 1825 1826 3 0.628 1.883 0.000 -2.510 -0.000 0.000
1824 1822 1825 1827 3 0.628 1.883 0.000 -2.510 -0.000 0.000
1824 1822 1825 1828 3 0.628 1.883 0.000 -2.510 -0.000 0.000
1829 1830 1833 1834 3 -0.778 -2.335 0.000 3.113 -0.000 0.000
1829 1830 1833 1837 3 -0.778 -2.335 0.000 3.113 -0.000 0.000
1830 1833 1834 1835 3 58.576 0.000 -58.576 -0.000 -0.000 0.000
1830 1833 1834 1836 3 58.576 0.000 -58.576 -0.000 -0.000 0.000
1830 1833 1834 1869 3 2.928800 -1.464400 0.209200 -1.673600 0.000000 0.000000
1830 1833 1837 1838 3 1.789 -5.052 -0.962 4.226 -0.000 0.000
1830 1833 1837 1839 3 1.789 -5.052 -0.962 4.226 -0.000 0.000
1831 1830 1833 1834 3 -0.778 -2.335 0.000 3.113 -0.000 0.000
1831 1830 1833 1837 3 -0.778 -2.335 0.000 3.113 -0.000 0.000
1832 1830 1833 1834 3 -0.778 -2.335 0.000 3.113 -0.000 0.000
1832 1830 1833 1837 3 -0.778 -2.335 0.000 3.113 -0.000 0.000
1834 1830 1833 1837 4 180.000 10.460 2
1833 1834 1869 1866 3 2.928800 -1.464400 0.209200 -1.673600 0.000000 0.000000
1833 1834 1869 1870 3 2.928800 -1.464400 0.209200 -1.673600 0.000000 0.000000
1833 1834 1869 1873 3 2.928800 -1.464400 0.209200 -1.673600 0.000000 0.000000
1833 1837 1839 1840 3 31.206 -9.768 -21.439 -0.000 -0.000 0.000
1834 1833 1837 1838 3 30.334 -5.230 -25.104 -0.000 -0.000 0.000
1834 1833 1837 1839 3 -5.858 -6.694 12.552 -0.000 -0.000 0.000
1835 1833 1834 1836 4 180.000 10.460 2
1837 1833 1834 1835 3 58.576 0.000 -58.576 -0.000 -0.000 0.000
1837 1833 1834 1836 3 58.576 0.000 -58.576 -0.000 -0.000 0.000
1837 1833 1834 1869 3 2.928800 -1.464400 0.209200 -1.673600 0.000000 0.000000
1838 1833 1837 1839 4 180.000 43.932 2
1834 1869 1870 1871 3 0.627600 1.882800 0.000000 -2.510400 0.000000 0.000000
1834 1869 1870 1872 3 0.627600 1.882800 0.000000 -2.510400 0.000000 0.000000
1834 1869 1870 1935 3 2.928800 -1.464400 0.209200 -1.673600 0.000000 0.000000
1834 1869 1873 1874 3 2.874410 0.581580 2.092000 -5.547990 0.000000 0.000000
1834 1869 1873 1875 3 2.874410 0.581580 2.092000 -5.547990 0.000000 0.000000
1835 1834 1869 1866 3 0.627600 1.882800 0.000000 -2.510400 0.000000 0.000000
1835 1834 1869 1870 3 0.627600 1.882800 0.000000 -2.510400 0.000000 0.000000
1835 1834 1869 1873 3 0.627600 1.882800 0.000000 -2.510400 0.000000 0.000000
1836 1834 1869 1866 3 0.627600 1.882800 0.000000 -2.510400 0.000000 0.000000
1836 1834 1869 1870 3 0.627600 1.882800 0.000000 -2.510400 0.000000 0.000000
1836 1834 1869 1873 3 0.627600 1.882800 0.000000 -2.510400 0.000000 0.000000
1865 1866 1869 1834 3 0.627600 1.882800 0.000000 -2.510400 0.000000 0.000000
1867 1866 1869 1834 3 0.627600 1.882800 0.000000 -2.510400 0.000000 0.000000
1868 1866 1869 1834 3 0.627600 1.882800 0.000000 -2.510400 0.000000 0.000000
1837 1839 1840 1841 3 0.414 1.243 0.000 -1.657 -0.000 0.000
1837 1839 1840 1842 3 0.414 1.243 0.000 -1.657 -0.000 0.000
1837 1839 1840 1843 3 -2.197 5.201 0.527 -3.531 -0.000 0.000
1838 1837 1839 1840 3 21.439 0.000 -21.439 -0.000 -0.000 0.000
1839 1840 1843 1844 3 0.979 2.937 0.000 -3.916 -0.000 0.000
1839 1840 1843 1845 3 2.874 0.582 2.092 -5.548 -0.000 0.000
1839 1840 1843 1852 3 2.874 0.582 2.092 -5.548 -0.000 0.000
1840 1843 1845 1846 3 0.628 1.883 0.000 -2.510 -0.000 0.000
1840 1843 1845 1847 3 0.628 1.883 0.000 -2.510 -0.000 0.000
1840 1843 1845 1848 3 2.301 -1.464 0.837 -1.674 -0.000 0.000
1840 1843 1852 1853 3 0.628 1.883 0.000 -2.510 -0.000 0.000
1840 1843 1852 1854 3 0.628 1.883 0.000 -2.510 -0.000 0.000
1840 1843 1852 1855 3 2.301 -1.464 0.837 -1.674 -0.000 0.000
1841 1840 1843 1844 3 0.628 1.883 0.000 -2.510 -0.000 0.000
1841 1840 1843 1845 3 0.628 1.883 0.000 -2.510 -0.000 0.000
1841 1840 1843 1852 3 0.628 1.883 0.000 -2.510 -0.000 0.000
1842 1840 1843 1844 3 0.628 1.883 0.000 -2.510 -0.000 0.000
1842 1840 1843 1845 3 0.628 1.883 0.000 -2.510 -0.000 0.000
1842 1840 1843 1852 3 0.628 1.883 0.000 -2.510 -0.000 0.000
1843 1845 1848 1849 3 0.628 1.883 0.000 -2.510 -0.000 0.000
1843 1845 1848 1850 3 0.628 1.883 0.000 -2.510 -0.000 0.000
1843 1845 1848 1851 3 0.628 1.883 0.000 -2.510 -0.000 0.000
1843 1852 1855 1856 3 0.628 1.883 0.000 -2.510 -0.000 0.000
1843 1852 1855 1857 3 0.628 1.883 0.000 -2.510 -0.000 0.000
1843 1852 1855 1858 3 2.301 -1.464 0.837 -1.674 -0.000 0.000
1844 1843 1845 1846 3 0.628 1.883 0.000 -2.510 -0.000 0.000
1844 1843 1845 1847 3 0.628 1.883 0.000 -2.510 -0.000 0.000
1844 1843 1845 1848 3 0.628 1.883 0.000 -2.510 -0.000 0.000
1844 1843 1852 1853 3 0.628 1.883 0.000 -2.510 -0.000 0.000
1844 1843 1852 1854 3 0.628 1.883 0.000 -2.510 -0.000 0.000
1844 1843 1852 1855 3 0.628 1.883 0.000 -2.510 -0.000 0.000
1845 1843 1852 1853 3 0.628 1.883 0.000 -2.510 -0.000 0.000
1845 1843 1852 1854 3 0.628 1.883 0.000 -2.510 -0.000 0.000
1845 1843 1852 1855 3 2.301 -1.464 0.837 -1.674 -0.000 0.000
1852 1843 1845 1846 3 0.628 1.883 0.000 -2.510 -0.000 0.000
1852 1843 1845 1847 3 0.628 1.883 0.000 -2.510 -0.000 0.000
1852 1843 1845 1848 3 2.301 -1.464 0.837 -1.674 -0.000 0.000
1846 1845 1848 1849 3 0.628 1.883 0.000 -2.510 -0.000 0.000
1846 1845 1848 1850 3 0.628 1.883 0.000 -2.510 -0.000 0.000
1846 1845 1848 1851 3 0.628 1.883 0.000 -2.510 -0.000 0.000
1847 1845 1848 1849 3 0.628 1.883 0.000 -2.510 -0.000 0.000
1847 1845 1848 1850 3 0.628 1.883 0.000 -2.510 -0.000 0.000
1847 1845 1848 1851 3 0.628 1.883 0.000 -2.510 -0.000 0.000
1852 1855 1858 1859 3 0.628 1.883 0.000 -2.510 -0.000 0.000
1852 1855 1858 1860 3 0.628 1.883 0.000 -2.510 -0.000 0.000
1852 1855 1858 1861 3 2.301 -1.464 0.837 -1.674 -0.000 0.000
1853 1852 1855 1856 3 0.628 1.883 0.000 -2.510 -0.000 0.000
1853 1852 1855 1857 3 0.628 1.883 0.000 -2.510 -0.000 0.000
1853 1852 1855 1858 3 0.628 1.883 0.000 -2.510 -0.000 0.000
1854 1852 1855 1856 3 0.628 1.883 0.000 -2.510 -0.000 0.000
1854 1852 1855 1857 3 0.628 1.883 0.000 -2.510 -0.000 0.000
1854 1852 1855 1858 3 0.628 1.883 0.000 -2.510 -0.000 0.000
1855 1858 1861 1862 3 0.628 1.883 0.000 -2.510 -0.000 0.000
1855 1858 1861 1863 3 0.628 1.883 0.000 -2.510 -0.000 0.000
1855 1858 1861 1864 3 0.628 1.883 0.000 -2.510 -0.000 0.000
1856 1855 1858 1859 3 0.628 1.883 0.000 -2.510 -0.000 0.000
1856 1855 1858 1860 3 0.628 1.883 0.000 -2.510 -0.000 0.000
1856 1855 1858 1861 3 0.628 1.883 0.000 -2.510 -0.000 0.000
1857 1855 1858 1859 3 0.628 1.883 0.000 -2.510 -0.000 0.000
1857 1855 1858 1860 3 0.628 1.883 0.000 -2.510 -0.000 0.000
1857 1855 1858 1861 3 0.628 1.883 0.000 -2.510 -0.000 0.000
1859 1858 1861 1862 3 0.628 1.883 0.000 -2.510 -0.000 0.000
1859 1858 1861 1863 3 0.628 1.883 0.000 -2.510 -0.000 0.000
1859 1858 1861 1864 3 0.628 1.883 0.000 -2.510 -0.000 0.000
1860 1858 1861 1862 3 0.628 1.883 0.000 -2.510 -0.000 0.000
1860 1858 1861 1863 3 0.628 1.883 0.000 -2.510 -0.000 0.000
1860 1858 1861 1864 3 0.628 1.883 0.000 -2.510 -0.000 0.000
1865 1866 1869 1870 3 -0.778 -2.335 0.000 3.113 -0.000 0.000
1865 1866 1869 1873 3 -0.778 -2.335 0.000 3.113 -0.000 0.000
1866 1869 1870 1871 3 58.576 0.000 -58.576 -0.000 -0.000 0.000
1866 1869 1870 1872 3 58.576 0.000 -58.576 -0.000 -0.000 0.000
1866 1869 1870 1935 3 2.928800 -1.464400 0.209200 -1.673600 0.000000 0.000000
1866 1869 1873 1874 3 1.789 -5.052 -0.962 4.226 -0.000 0.000
1866 1869 1873 1875 3 1.789 -5.052 -0.962 4.226 -0.000 0.000
1867 1866 1869 1870 3 -0.778 -2.335 0.000 3.113 -0.000 0.000
1867 1866 1869 1873 3 -0.778 -2.335 0.000 3.113 -0.000 0.000
1868 1866 1869 1870 3 -0.778 -2.335 0.000 3.113 -0.000 0.000
1868 1866 1869 1873 3 -0.778 -2.335 0.000 3.113 -0.000 0.000
1870 1866 1869 1873 4 180.000 10.460 2
1869 1870 1935 1932 3 2.928800 -1.464400 0.209200 -1.673600 0.000000 0.000000
1869 1870 1935 1936 3 2.928800 -1.464400 0.209200 -1.673600 0.000000 0.000000
1869 1870 1935 1939 3 2.928800 -1.464400 0.209200 -1.673600 0.000000 0.000000
1869 1873 1875 1876 3 31.206 -9.768 -21.439 -0.000 -0.000 0.000
1870 1869 1873 1874 3 30.334 -5.230 -25.104 -0.000 -0.000 0.000
1870 1869 1873 1875 3 -5.858 -6.694 12.552 -0.000 -0.000 0.000
1871 1869 1870 1872 4 180.000 10.460 2
1873 1869 1870 1871 3 58.576 0.000 -58.576 -0.000 -0.000 0.000
1873 1869 1870 1872 3 58.576 0.000 -58.576 -0.000 -0.000 0.000
1873 1869 1870 1935 3 2.928800 -1.464400 0.209200 -1.673600 0.000000 0.000000
1874 1869 1873 1875 4 180.000 43.932 2
1870 1935 1936 1937 3 0.627600 1.882800 0.000000 -2.510400 0.000000 0.000000
1870 1935 1936 1938 3 0.627600 1.882800 0.000000 -2.510400 0.000000 0.000000
1870 1935 1936 2001 3 2.928800 -1.464400 0.209200 -1.673600 0.000000 0.000000
1870 1935 1939 1940 3 2.874410 0.581580 2.092000 -5.547990 0.000000 0.000000
1870 1935 1939 1941 3 2.874410 0.581580 2.092000 -5.547990 0.000000 0.000000
1871 1870 1935 1932 3 0.627600 1.882800 0.000000 -2.510400 0.000000 0.000000
1871 1870 1935 1936 3 0.627600 1.882800 0.000000 -2.510400 0.000000 0.000000
1871 1870 1935 1939 3 0.627600 1.882800 0.000000 -2.510400 0.000000 0.000000
1872 1870 1935 1932 3 0.627600 1.882800 0.000000 -2.510400 0.000000 0.000000
1872 1870 1935 1936 3 0.627600 1.882800 0.000000 -2.510400 0.000000 0.000000
1872 1870 1935 1939 3 0.627600 1.882800 0.000000 -2.510400 0.000000 0.000000
1931 1932 1935 1870 3 0.627600 1.882800 0.000000 -2.510400 0.000000 0.000000
1933 1932 1935 1870 3 0.627600 1.882800 0.000000 -2.510400 0.000000 0.000000
1934 1932 1935 1870 3 0.627600 1.882800 0.000000 -2.510400 0.000000 0.000000
1873 1875 1876 1877 3 0.414 1.243 0.000 -1.657 -0.000 0.000
1873 1875 1876 1878 3 0.414 1.243 0.000 -1.657 -0.000 0.000
1873 1875 1876 1879 3 -2.197 5.201 0.527 -3.531 -0.000 0.000
1874 1873 1875 1876 3 21.439 0.000 -21.439 -0.000 -0.000 0.000
1875 1876 1879 1880 3 0.979 2.937 0.000 -3.916 -0.000 0.000
1875 1876 1879 1881 3 0.979 2.937 0.000 -3.916 -0.000 0.000
1875 1876 1879 1882 3 2.874 0.582 2.092 -5.548 -0.000 0.000
1876 1879 1882 1883 3 0.628 1.883 0.000 -2.510 -0.000 0.000
1876 1879 1882 1884 3 0.628 1.883 0.000 -2.510 -0.000 0.000
1876 1879 1882 1885 3 2.301 -1.464 0.837 -1.674 -0.000 0.000
1877 1876 1879 1880 3 0.628 1.883 0.000 -2.510 -0.000 0.000
1877 1876 1879 1881 3 0.628 1.883 0.000 -2.510 -0.000 0.000
1877 1876 1879 1882 3 0.628 1.883 0.000 -2.510 -0.000 0.000
1878 1876 1879 1880 3 0.628 1.883 0.000 -2.510 -0.000 0.000
1878 1876 1879 1881 3 0.628 1.883 0.000 -2.510 -0.000 0.000
1878 1876 1879 1882 3 0.628 1.883 0.000 -2.510 -0.000 0.000
1879 1882 1885 1886 3 0.628 1.883 0.000 -2.510 -0.000 0.000
1879 1882 1885 1887 3 0.628 1.883 0.000 -2.510 -0.000 0.000
1879 1882 1885 1888 3 2.301 -1.464 0.837 -1.674 -0.000 0.000
1880 1879 1882 1883 3 0.628 1.883 0.000 -2.510 -0.000 0.000
1880 1879 1882 1884 3 0.628 1.883 0.000 -2.510 -0.000 0.000
1880 1879 1882 1885 3 0.628 1.883 0.000 -2.510 -0.000 0.000
1881 1879 1882 1883 3 0.628 1.883 0.000 -2.510 -0.000 0.000
1881 1879 1882 1884 3 0.628 1.883 0.000 -2.510 -0.000 0.000
1881 1879 1882 1885 3 0.628 1.883 0.000 -2.510 -0.000 0.000
1882 1885 1888 1889 3 0.628 1.883 0.000 -2.510 -0.000 0.000
1882 1885 1888 1890 3 0.628 1.883 0.000 -2.510 -0.000 0.000
1882 1885 1888 1891 3 2.301 -1.464 0.837 -1.674 -0.000 0.000
1883 1882 1885 1886 3 0.628 1.883 0.000 -2.510 -0.000 0.000
1883 1882 1885 1887 3 0.628 1.883 0.000 -2.510 -0.000 0.000
1883 1882 1885 1888 3 0.628 1.883 0.000 -2.510 -0.000 0.000
1884 1882 1885 1886 3 0.628 1.883 0.000 -2.510 -0.000 0.000
1884 1882 1885 1887 3 0.628 1.883 0.000 -2.510 -0.000 0.000
1884 1882 1885 1888 3 0.628 1.883 0.000 -2.510 -0.000 0.000
1885 1888 1891 1892 3 0.628 1.883 0.000 -2.510 -0.000 0.000
1885 1888 1891 1893 3 0.628 1.883 0.000 -2.510 -0.000 0.000
1885 1888 1891 1894 3 2.301 -1.464 0.837 -1.674 -0.000 0.000
1886 1885 1888 1889 3 0.628 1.883 0.000 -2.510 -0.000 0.000
1886 1885 1888 1890 3 0.628 1.883 0.000 -2.510 -0.000 0.000
1886 1885 1888 1891 3 0.628 1.883 0.000 -2.510 -0.000 0.000
1887 1885 1888 1889 3 0.628 1.883 0.000 -2.510 -0.000 0.000
1887 1885 1888 1890 3 0.628 1.883 0.000 -2.510 -0.000 0.000
1887 1885 1888 1891 3 0.628 1.883 0.000 -2.510 -0.000 0.000
1888 1891 1894 1895 3 0.628 1.883 0.000 -2.510 -0.000 0.000
1888 1891 1894 1896 3 0.628 1.883 0.000 -2.510 -0.000 0.000
1888 1891 1894 1897 3 2.301 -1.464 0.837 -1.674 -0.000 0.000
1889 1888 1891 1892 3 0.628 1.883 0.000 -2.510 -0.000 0.000
1889 1888 1891 1893 3 0.628 1.883 0.000 -2.510 -0.000 0.000
1889 1888 1891 1894 3 0.628 1.883 0.000 -2.510 -0.000 0.000
1890 1888 1891 1892 3 0.628 1.883 0.000 -2.510 -0.000 0.000
1890 1888 1891 1893 3 0.628 1.883 0.000 -2.510 -0.000 0.000
1890 1888 1891 1894 3 0.628 1.883 0.000 -2.510 -0.000 0.000
1891 1894 1897 1898 3 0.628 1.883 0.000 -2.510 -0.000 0.000
1891 1894 1897 1899 3 0.628 1.883 0.000 -2.510 -0.000 0.000
1891 1894 1897 1900 3 2.301 -1.464 0.837 -1.674 -0.000 0.000
1892 1891 1894 1895 3 0.628 1.883 0.000 -2.510 -0.000 0.000
1892 1891 1894 1896 3 0.628 1.883 0.000 -2.510 -0.000 0.000
1892 1891 1894 1897 3 0.628 1.883 0.000 -2.510 -0.000 0.000
1893 1891 1894 1895 3 0.628 1.883 0.000 -2.510 -0.000 0.000
1893 1891 1894 1896 3 0.628 1.883 0.000 -2.510 -0.000 0.000
1893 1891 1894 1897 3 0.628 1.883 0.000 -2.510 -0.000 0.000
1894 1897 1900 1901 3 0.628 1.883 0.000 -2.510 -0.000 0.000
1894 1897 1900 1902 3 0.628 1.883 0.000 -2.510 -0.000 0.000
1894 1897 1900 1903 3 2.301 -1.464 0.837 -1.674 -0.000 0.000
1895 1894 1897 1898 3 0.628 1.883 0.000 -2.510 -0.000 0.000
1895 1894 1897 1899 3 0.628 1.883 0.000 -2.510 -0.000 0.000
1895 1894 1897 1900 3 0.628 1.883 0.000 -2.510 -0.000 0.000
1896 1894 1897 1898 3 0.628 1.883 0.000 -2.510 -0.000 0.000
1896 1894 1897 1899 3 0.628 1.883 0.000 -2.510 -0.000 0.000
1896 1894 1897 1900 3 0.628 1.883 0.000 -2.510 -0.000 0.000
1897 1900 1903 1904 3 0.628 1.883 0.000 -2.510 -0.000 0.000
1897 1900 1903 1905 3 0.628 1.883 0.000 -2.510 -0.000 0.000
1897 1900 1903 1906 3 2.301 -1.464 0.837 -1.674 -0.000 0.000
1898 1897 1900 1901 3 0.628 1.883 0.000 -2.510 -0.000 0.000
1898 1897 1900 1902 3 0.628 1.883 0.000 -2.510 -0.000 0.000
1898 1897 1900 1903 3 0.628 1.883 0.000 -2.510 -0.000 0.000
1899 1897 1900 1901 3 0.628 1.883 0.000 -2.510 -0.000 0.000
1899 1897 1900 1902 3 0.628 1.883 0.000 -2.510 -0.000 0.000
1899 1897 1900 1903 3 0.628 1.883 0.000 -2.510 -0.000 0.000
1900 1903 1906 1907 3 0.628 1.883 0.000 -2.510 -0.000 0.000
1900 1903 1906 1908 3 0.628 1.883 0.000 -2.510 -0.000 0.000
1900 1903 1906 1909 3 2.301 -1.464 0.837 -1.674 -0.000 0.000
1901 1900 1903 1904 3 0.628 1.883 0.000 -2.510 -0.000 0.000
1901 1900 1903 1905 3 0.628 1.883 0.000 -2.510 -0.000 0.000
1901 1900 1903 1906 3 0.628 1.883 0.000 -2.510 -0.000 0.000
1902 1900 1903 1904 3 0.628 1.883 0.000 -2.510 -0.000 0.000
1902 1900 1903 1905 3 0.628 1.883 0.000 -2.510 -0.000 0.000
1902 1900 1903 1906 3 0.628 1.883 0.000 -2.510 -0.000 0.000
1903 1906 1909 1910 3 0.628 1.883 0.000 -2.510 -0.000 0.000
1903 1906 1909 1911 3 0.628 1.883 0.000 -2.510 -0.000 0.000
1903 1906 1909 1912 3 2.301 -1.464 0.837 -1.674 -0.000 0.000
1904 1903 1906 1907 3 0.628 1.883 0.000 -2.510 -0.000 0.000
1904 1903 1906 1908 3 0.628 1.883 0.000 -2.510 -0.000 0.000
1904 1903 1906 1909 3 0.628 1.883 0.000 -2.510 -0.000 0.000
1905 1903 1906 1907 3 0.628 1.883 0.000 -2.510 -0.000 0.000
1905 1903 1906 1908 3 0.628 1.883 0.000 -2.510 -0.000 0.000
1905 1903 1906 1909 3 0.628 1.883 0.000 -2.510 -0.000 0.000
1906 1909 1912 1913 3 0.628 1.883 0.000 -2.510 -0.000 0.000
1906 1909 1912 1914 3 0.628 1.883 0.000 -2.510 -0.000 0.000
1906 1909 1912 1915 3 2.301 -1.464 0.837 -1.674 -0.000 0.000
1907 1906 1909 1910 3 0.628 1.883 0.000 -2.510 -0.000 0.000
1907 1906 1909 1911 3 0.628 1.883 0.000 -2.510 -0.000 0.000
1907 1906 1909 1912 3 0.628 1.883 0.000 -2.510 -0.000 0.000
1908 1906 1909 1910 3 0.628 1.883 0.000 -2.510 -0.000 0.000
1908 1906 1909 1911 3 0.628 1.883 0.000 -2.510 -0.000 0.000
1908 1906 1909 1912 3 0.628 1.883 0.000 -2.510 -0.000 0.000
1909 1912 1915 1916 3 0.628 1.883 0.000 -2.510 -0.000 0.000
1909 1912 1915 1917 3 0.628 1.883 0.000 -2.510 -0.000 0.000
1909 1912 1915 1918 3 2.301 -1.464 0.837 -1.674 -0.000 0.000
1910 1909 1912 1913 3 0.628 1.883 0.000 -2.510 -0.000 0.000
1910 1909 1912 1914 3 0.628 1.883 0.000 -2.510 -0.000 0.000
1910 1909 1912 1915 3 0.628 1.883 0.000 -2.510 -0.000 0.000
1911 1909 1912 1913 3 0.628 1.883 0.000 -2.510 -0.000 0.000
1911 1909 1912 1914 3 0.628 1.883 0.000 -2.510 -0.000 0.000
1911 1909 1912 1915 3 0.628 1.883 0.000 -2.510 -0.000 0.000
1912 1915 1918 1919 3 0.628 1.883 0.000 -2.510 -0.000 0.000
1912 1915 1918 1920 3 0.628 1.883 0.000 -2.510 -0.000 0.000
1912 1915 1918 1921 3 2.301 -1.464 0.837 -1.674 -0.000 0.000
1913 1912 1915 1916 3 0.628 1.883 0.000 -2.510 -0.000 0.000
1913 1912 1915 1917 3 0.628 1.883 0.000 -2.510 -0.000 0.000
1913 1912 1915 1918 3 0.628 1.883 0.000 -2.510 -0.000 0.000
1914 1912 1915 1916 3 0.628 1.883 0.000 -2.510 -0.000 0.000
1914 1912 1915 1917 3 0.628 1.883 0.000 -2.510 -0.000 0.000
1914 1912 1915 1918 3 0.628 1.883 0.000 -2.510 -0.000 0.000
1915 1918 1921 1922 3 0.628 1.883 0.000 -2.510 -0.000 0.000
1915 1918 1921 1923 3 0.628 1.883 0.000 -2.510 -0.000 0.000
1915 1918 1921 1924 3 2.301 -1.464 0.837 -1.674 -0.000 0.000
1916 1915 1918 1919 3 0.628 1.883 0.000 -2.510 -0.000 0.000
1916 1915 1918 1920 3 0.628 1.883 0.000 -2.510 -0.000 0.000
1916 1915 1918 1921 3 0.628 1.883 0.000 -2.510 -0.000 0.000
1917 1915 1918 1919 3 0.628 1.883 0.000 -2.510 -0.000 0.000
1917 1915 1918 1920 3 0.628 1.883 0.000 -2.510 -0.000 0.000
1917 1915 1918 1921 3 0.628 1.883 0.000 -2.510 -0.000 0.000
1918 1921 1924 1925 3 0.628 1.883 0.000 -2.510 -0.000 0.000
1918 1921 1924 1926 3 0.628 1.883 0.000 -2.510 -0.000 0.000
1918 1921 1924 1927 3 2.301 -1.464 0.837 -1.674 -0.000 0.000
1919 1918 1921 1922 3 0.628 1.883 0.000 -2.510 -0.000 0.000
1919 1918 1921 1923 3 0.628 1.883 0.000 -2.510 -0.000 0.000
1919 1918 1921 1924 3 0.628 1.883 0.000 -2.510 -0.000 0.000
1920 1918 1921 1922 3 0.628 1.883 0.000 -2.510 -0.000 0.000
1920 1918 1921 1923 3 0.628 1.883 0.000 -2.510 -0.000 0.000
1920 1918 1921 1924 3 0.628 1.883 0.000 -2.510 -0.000 0.000
1921 1924 1927 1928 3 0.628 1.883 0.000 -2.510 -0.000 0.000
1921 1924 1927 1929 3 0.628 1.883 0.000 -2.510 -0.000 0.000
1921 1924 1927 1930 3 0.628 1.883 0.000 -2.510 -0.000 0.000
1922 1921 1924 1925 3 0.628 1.883 0.000 -2.510 -0.000 0.000
1922 1921 1924 1926 3 0.628 1.883 0.000 -2.510 -0.000 0.000
1922 1921 1924 1927 3 0.628 1.883 0.000 -2.510 -0.000 0.000
1923 1921 1924 1925 3 0.628 1.883 0.000 -2.510 -0.000 0.000
1923 1921 1924 1926 3 0.628 1.883 0.000 -2.510 -0.000 0.000
1923 1921 1924 1927 3 0.628 1.883 0.000 -2.510 -0.000 0.000
1925 1924 1927 1928 3 0.628 1.883 0.000 -2.510 -0.000 0.000
1925 1924 1927 1929 3 0.628 1.883 0.000 -2.510 -0.000 0.000
1925 1924 1927 1930 3 0.628 1.883 0.000 -2.510 -0.000 0.000
1926 1924 1927 1928 3 0.628 1.883 0.000 -2.510 -0.000 0.000
1926 1924 1927 1929 3 0.628 1.883 0.000 -2.510 -0.000 0.000
1926 1924 1927 1930 3 0.628 1.883 0.000 -2.510 -0.000 0.000
1931 1932 1935 1936 3 -0.778 -2.335 0.000 3.113 -0.000 0.000
1931 1932 1935 1939 3 -0.778 -2.335 0.000 3.113 -0.000 0.000
1932 1935 1936 1937 3 58.576 0.000 -58.576 -0.000 -0.000 0.000
1932 1935 1936 1938 3 58.576 0.000 -58.576 -0.000 -0.000 0.000
1932 1935 1936 2001 3 2.928800 -1.464400 0.209200 -1.673600 0.000000 0.000000
1932 1935 1939 1940 3 1.789 -5.052 -0.962 4.226 -0.000 0.000
1932 1935 1939 1941 3 1.789 -5.052 -0.962 4.226 -0.000 0.000
1933 1932 1935 1936 3 -0.778 -2.335 0.000 3.113 -0.000 0.000
1933 1932 1935 1939 3 -0.778 -2.335 0.000 3.113 -0.000 0.000
1934 1932 1935 1936 3 -0.778 -2.335 0.000 3.113 -0.000 0.000
1934 1932 1935 1939 3 -0.778 -2.335 0.000 3.113 -0.000 0.000
1936 1932 1935 1939 4 180.000 10.460 2
1935 1936 2001 1998 3 2.928800 -1.464400 0.209200 -1.673600 0.000000 0.000000
1935 1936 2001 2002 3 2.928800 -1.464400 0.209200 -1.673600 0.000000 0.000000
1935 1936 2001 2005 3 2.928800 -1.464400 0.209200 -1.673600 0.000000 0.000000
1935 1939 1941 1942 3 31.206 -9.768 -21.439 -0.000 -0.000 0.000
1936 1935 1939 1940 3 30.334 -5.230 -25.104 -0.000 -0.000 0.000
1936 1935 1939 1941 3 -5.858 -6.694 12.552 -0.000 -0.000 0.000
1937 1935 1936 1938 4 180.000 10.460 2
1939 1935 1936 1937 3 58.576 0.000 -58.576 -0.000 -0.000 0.000
1939 1935 1936 1938 3 58.576 0.000 -58.576 -0.000 -0.000 0.000
1939 1935 1936 2001 3 2.928800 -1.464400 0.209200 -1.673600 0.000000 0.000000
1940 1935 1939 1941 4 180.000 43.932 2
1936 2001 2002 2003 3 0.627600 1.882800 0.000000 -2.510400 0.000000 0.000000
1936 2001 2002 2004 3 0.627600 1.882800 0.000000 -2.510400 0.000000 0.000000
1936 2001 2002 2049 3 2.928800 -1.464400 0.209200 -1.673600 0.000000 0.000000
1936 2001 2005 2006 3 2.874410 0.581580 2.092000 -5.547990 0.000000 0.000000
1936 2001 2005 2007 3 2.874410 0.581580 2.092000 -5.547990 0.000000 0.000000
1937 1936 2001 1998 3 0.627600 1.882800 0.000000 -2.510400 0.000000 0.000000
1937 1936 2001 2002 3 0.627600 1.882800 0.000000 -2.510400 0.000000 0.000000
1937 1936 2001 2005 3 0.627600 1.882800 0.000000 -2.510400 0.000000 0.000000
1938 1936 2001 1998 3 0.627600 1.882800 0.000000 -2.510400 0.000000 0.000000
1938 1936 2001 2002 3 0.627600 1.882800 0.000000 -2.510400 0.000000 0.000000
1938 1936 2001 2005 3 0.627600 1.882800 0.000000 -2.510400 0.000000 0.000000
1997 1998 2001 1936 3 0.627600 1.882800 0.000000 -2.510400 0.000000 0.000000
1999 1998 2001 1936 3 0.627600 1.882800 0.000000 -2.510400 0.000000 0.000000
2000 1998 2001 1936 3 0.627600 1.882800 0.000000 -2.510400 0.000000 0.000000
1939 1941 1942 1943 3 0.414 1.243 0.000 -1.657 -0.000 0.000
1939 1941 1942 1944 3 0.414 1.243 0.000 -1.657 -0.000 0.000
1939 1941 1942 1945 3 -2.197 5.201 0.527 -3.531 -0.000 0.000
1940 1939 1941 1942 3 21.439 0.000 -21.439 -0.000 -0.000 0.000
1941 1942 1945 1946 3 0.979 2.937 0.000 -3.916 -0.000 0.000
1941 1942 1945 1947 3 0.979 2.937 0.000 -3.916 -0.000 0.000
1941 1942 1945 1948 3 2.874 0.582 2.092 -5.548 -0.000 0.000
1942 1945 1948 1949 3 0.628 1.883 0.000 -2.510 -0.000 0.000
1942 1945 1948 1950 3 0.628 1.883 0.000 -2.510 -0.000 0.000
1942 1945 1948 1951 3 2.301 -1.464 0.837 -1.674 -0.000 0.000
1943 1942 1945 1946 3 0.628 1.883 0.000 -2.510 -0.000 0.000
1943 1942 1945 1947 3 0.628 1.883 0.000 -2.510 -0.000 0.000
1943 1942 1945 1948 3 0.628 1.883 0.000 -2.510 -0.000 0.000
1944 1942 1945 1946 3 0.628 1.883 0.000 -2.510 -0.000 0.000
1944 1942 1945 1947 3 0.628 1.883 0.000 -2.510 -0.000 0.000
1944 1942 1945 1948 3 0.628 1.883 0.000 -2.510 -0.000 0.000
1945 1948 1951 1952 3 0.628 1.883 0.000 -2.510 -0.000 0.000
1945 1948 1951 1953 3 0.628 1.883 0.000 -2.510 -0.000 0.000
1945 1948 1951 1954 3 2.301 -1.464 0.837 -1.674 -0.000 0.000
1946 1945 1948 1949 3 0.628 1.883 0.000 -2.510 -0.000 0.000
1946 1945 1948 1950 3 0.628 1.883 0.000 -2.510 -0.000 0.000
1946 1945 1948 1951 3 0.628 1.883 0.000 -2.510 -0.000 0.000
1947 1945 1948 1949 3 0.628 1.883 0.000 -2.510 -0.000 0.000
1947 1945 1948 1950 3 0.628 1.883 0.000 -2.510 -0.000 0.000
1947 1945 1948 1951 3 0.628 1.883 0.000 -2.510 -0.000 0.000
1948 1951 1954 1955 3 0.628 1.883 0.000 -2.510 -0.000 0.000
1948 1951 1954 1956 3 0.628 1.883 0.000 -2.510 -0.000 0.000
1948 1951 1954 1957 3 2.301 -1.464 0.837 -1.674 -0.000 0.000
1949 1948 1951 1952 3 0.628 1.883 0.000 -2.510 -0.000 0.000
1949 1948 1951 1953 3 0.628 1.883 0.000 -2.510 -0.000 0.000
1949 1948 1951 1954 3 0.628 1.883 0.000 -2.510 -0.000 0.000
1950 1948 1951 1952 3 0.628 1.883 0.000 -2.510 -0.000 0.000
1950 1948 1951 1953 3 0.628 1.883 0.000 -2.510 -0.000 0.000
1950 1948 1951 1954 3 0.628 1.883 0.000 -2.510 -0.000 0.000
1951 1954 1957 1958 3 0.628 1.883 0.000 -2.510 -0.000 0.000
1951 1954 1957 1959 3 0.628 1.883 0.000 -2.510 -0.000 0.000
1951 1954 1957 1960 3 2.301 -1.464 0.837 -1.674 -0.000 0.000
1952 1951 1954 1955 3 0.628 1.883 0.000 -2.510 -0.000 0.000
1952 1951 1954 1956 3 0.628 1.883 0.000 -2.510 -0.000 0.000
1952 1951 1954 1957 3 0.628 1.883 0.000 -2.510 -0.000 0.000
1953 1951 1954 1955 3 0.628 1.883 0.000 -2.510 -0.000 0.000
1953 1951 1954 1956 3 0.628 1.883 0.000 -2.510 -0.000 0.000
1953 1951 1954 1957 3 0.628 1.883 0.000 -2.510 -0.000 0.000
1954 1957 1960 1961 3 0.628 1.883 0.000 -2.510 -0.000 0.000
1954 1957 1960 1962 3 0.628 1.883 0.000 -2.510 -0.000 0.000
1954 1957 1960 1963 3 2.301 -1.464 0.837 -1.674 -0.000 0.000
1955 1954 1957 1958 3 0.628 1.883 0.000 -2.510 -0.000 0.000
1955 1954 1957 1959 3 0.628 1.883 0.000 -2.510 -0.000 0.000
1955 1954 1957 1960 3 0.628 1.883 0.000 -2.510 -0.000 0.000
1956 1954 1957 1958 3 0.628 1.883 0.000 -2.510 -0.000 0.000
1956 1954 1957 1959 3 0.628 1.883 0.000 -2.510 -0.000 0.000
1956 1954 1957 1960 3 0.628 1.883 0.000 -2.510 -0.000 0.000
1957 1960 1963 1964 3 0.628 1.883 0.000 -2.510 -0.000 0.000
1957 1960 1963 1965 3 0.628 1.883 0.000 -2.510 -0.000 0.000
1957 1960 1963 1966 3 2.301 -1.464 0.837 -1.674 -0.000 0.000
1958 1957 1960 1961 3 0.628 1.883 0.000 -2.510 -0.000 0.000
1958 1957 1960 1962 3 0.628 1.883 0.000 -2.510 -0.000 0.000
1958 1957 1960 1963 3 0.628 1.883 0.000 -2.510 -0.000 0.000
1959 1957 1960 1961 3 0.628 1.883 0.000 -2.510 -0.000 0.000
1959 1957 1960 1962 3 0.628 1.883 0.000 -2.510 -0.000 0.000
1959 1957 1960 1963 3 0.628 1.883 0.000 -2.510 -0.000 0.000
1960 1963 1966 1967 3 0.628 1.883 0.000 -2.510 -0.000 0.000
1960 1963 1966 1968 3 0.628 1.883 0.000 -2.510 -0.000 0.000
1960 1963 1966 1969 3 2.301 -1.464 0.837 -1.674 -0.000 0.000
1961 1960 1963 1964 3 0.628 1.883 0.000 -2.510 -0.000 0.000
1961 1960 1963 1965 3 0.628 1.883 0.000 -2.510 -0.000 0.000
1961 1960 1963 1966 3 0.628 1.883 0.000 -2.510 -0.000 0.000
1962 1960 1963 1964 3 0.628 1.883 0.000 -2.510 -0.000 0.000
1962 1960 1963 1965 3 0.628 1.883 0.000 -2.510 -0.000 0.000
1962 1960 1963 1966 3 0.628 1.883 0.000 -2.510 -0.000 0.000
1963 1966 1969 1970 3 0.628 1.883 0.000 -2.510 -0.000 0.000
1963 1966 1969 1971 3 0.628 1.883 0.000 -2.510 -0.000 0.000
1963 1966 1969 1972 3 2.301 -1.464 0.837 -1.674 -0.000 0.000
1964 1963 1966 1967 3 0.628 1.883 0.000 -2.510 -0.000 0.000
1964 1963 1966 1968 3 0.628 1.883 0.000 -2.510 -0.000 0.000
1964 1963 1966 1969 3 0.628 1.883 0.000 -2.510 -0.000 0.000
1965 1963 1966 1967 3 0.628 1.883 0.000 -2.510 -0.000 0.000
1965 1963 1966 1968 3 0.628 1.883 0.000 -2.510 -0.000 0.000
1965 1963 1966 1969 3 0.628 1.883 0.000 -2.510 -0.000 0.000
1966 1969 1972 1973 3 0.628 1.883 0.000 -2.510 -0.000 0.000
1966 1969 1972 1974 3 0.628 1.883 0.000 -2.510 -0.000 0.000
1966 1969 1972 1975 3 2.301 -1.464 0.837 -1.674 -0.000 0.000
1967 1966 1969 1970 3 0.628 1.883 0.000 -2.510 -0.000 0.000
1967 1966 1969 1971 3 0.628 1.883 0.000 -2.510 -0.000 0.000
1967 1966 1969 1972 3 0.628 1.883 0.000 -2.510 -0.000 0.000
1968 1966 1969 1970 3 0.628 1.883 0.000 -2.510 -0.000 0.000
1968 1966 1969 1971 3 0.628 1.883 0.000 -2.510 -0.000 0.000
1968 1966 1969 1972 3 0.628 1.883 0.000 -2.510 -0.000 0.000
1969 1972 1975 1976 3 0.628 1.883 0.000 -2.510 -0.000 0.000
1969 1972 1975 1977 3 0.628 1.883 0.000 -2.510 -0.000 0.000
1969 1972 1975 1978 3 2.301 -1.464 0.837 -1.674 -0.000 0.000
1970 1969 1972 1973 3 0.628 1.883 0.000 -2.510 -0.000 0.000
1970 1969 1972 1974 3 0.628 1.883 0.000 -2.510 -0.000 0.000
1970 1969 1972 1975 3 0.628 1.883 0.000 -2.510 -0.000 0.000
1971 1969 1972 1973 3 0.628 1.883 0.000 -2.510 -0.000 0.000
1971 1969 1972 1974 3 0.628 1.883 0.000 -2.510 -0.000 0.000
1971 1969 1972 1975 3 0.628 1.883 0.000 -2.510 -0.000 0.000
1972 1975 1978 1979 3 0.628 1.883 0.000 -2.510 -0.000 0.000
1972 1975 1978 1980 3 0.628 1.883 0.000 -2.510 -0.000 0.000
1972 1975 1978 1981 3 2.301 -1.464 0.837 -1.674 -0.000 0.000
1973 1972 1975 1976 3 0.628 1.883 0.000 -2.510 -0.000 0.000
1973 1972 1975 1977 3 0.628 1.883 0.000 -2.510 -0.000 0.000
1973 1972 1975 1978 3 0.628 1.883 0.000 -2.510 -0.000 0.000
1974 1972 1975 1976 3 0.628 1.883 0.000 -2.510 -0.000 0.000
1974 1972 1975 1977 3 0.628 1.883 0.000 -2.510 -0.000 0.000
1974 1972 1975 1978 3 0.628 1.883 0.000 -2.510 -0.000 0.000
1975 1978 1981 1982 3 0.628 1.883 0.000 -2.510 -0.000 0.000
1975 1978 1981 1983 3 0.628 1.883 0.000 -2.510 -0.000 0.000
1975 1978 1981 1984 3 2.301 -1.464 0.837 -1.674 -0.000 0.000
1976 1975 1978 1979 3 0.628 1.883 0.000 -2.510 -0.000 0.000
1976 1975 1978 1980 3 0.628 1.883 0.000 -2.510 -0.000 0.000
1976 1975 1978 1981 3 0.628 1.883 0.000 -2.510 -0.000 0.000
1977 1975 1978 1979 3 0.628 1.883 0.000 -2.510 -0.000 0.000
1977 1975 1978 1980 3 0.628 1.883 0.000 -2.510 -0.000 0.000
1977 1975 1978 1981 3 0.628 1.883 0.000 -2.510 -0.000 0.000
1978 1981 1984 1985 3 0.628 1.883 0.000 -2.510 -0.000 0.000
1978 1981 1984 1986 3 0.628 1.883 0.000 -2.510 -0.000 0.000
1978 1981 1984 1987 3 2.301 -1.464 0.837 -1.674 -0.000 0.000
1979 1978 1981 1982 3 0.628 1.883 0.000 -2.510 -0.000 0.000
1979 1978 1981 1983 3 0.628 1.883 0.000 -2.510 -0.000 0.000
1979 1978 1981 1984 3 0.628 1.883 0.000 -2.510 -0.000 0.000
1980 1978 1981 1982 3 0.628 1.883 0.000 -2.510 -0.000 0.000
1980 1978 1981 1983 3 0.628 1.883 0.000 -2.510 -0.000 0.000
1980 1978 1981 1984 3 0.628 1.883 0.000 -2.510 -0.000 0.000
1981 1984 1987 1988 3 0.628 1.883 0.000 -2.510 -0.000 0.000
1981 1984 1987 1989 3 0.628 1.883 0.000 -2.510 -0.000 0.000
1981 1984 1987 1990 3 2.301 -1.464 0.837 -1.674 -0.000 0.000
1982 1981 1984 1985 3 0.628 1.883 0.000 -2.510 -0.000 0.000
1982 1981 1984 1986 3 0.628 1.883 0.000 -2.510 -0.000 0.000
1982 1981 1984 1987 3 0.628 1.883 0.000 -2.510 -0.000 0.000
1983 1981 1984 1985 3 0.628 1.883 0.000 -2.510 -0.000 0.000
1983 1981 1984 1986 3 0.628 1.883 0.000 -2.510 -0.000 0.000
1983 1981 1984 1987 3 0.628 1.883 0.000 -2.510 -0.000 0.000
1984 1987 1990 1991 3 0.628 1.883 0.000 -2.510 -0.000 0.000
1984 1987 1990 1992 3 0.628 1.883 0.000 -2.510 -0.000 0.000
1984 1987 1990 1993 3 2.301 -1.464 0.837 -1.674 -0.000 0.000
1985 1984 1987 1988 3 0.628 1.883 0.000 -2.510 -0.000 0.000
1985 1984 1987 1989 3 0.628 1.883 0.000 -2.510 -0.000 0.000
1985 1984 1987 1990 3 0.628 1.883 0.000 -2.510 -0.000 0.000
1986 1984 1987 1988 3 0.628 1.883 0.000 -2.510 -0.000 0.000
1986 1984 1987 1989 3 0.628 1.883 0.000 -2.510 -0.000 0.000
1986 1984 1987 1990 3 0.628 1.883 0.000 -2.510 -0.000 0.000
1987 1990 1993 1994 3 0.628 1.883 0.000 -2.510 -0.000 0.000
1987 1990 1993 1995 3 0.628 1.883 0.000 -2.510 -0.000 0.000
1987 1990 1993 1996 3 0.628 1.883 0.000 -2.510 -0.000 0.000
1988 1987 1990 1991 3 0.628 1.883 0.000 -2.510 -0.000 0.000
1988 1987 1990 1992 3 0.628 1.883 0.000 -2.510 -0.000 0.000
1988 1987 1990 1993 3 0.628 1.883 0.000 -2.510 -0.000 0.000
1989 1987 1990 1991 3 0.628 1.883 0.000 -2.510 -0.000 0.000
1989 1987 1990 1992 3 0.628 1.883 0.000 -2.510 -0.000 0.000
1989 1987 1990 1993 3 0.628 1.883 0.000 -2.510 -0.000 0.000
1991 1990 1993 1994 3 0.628 1.883 0.000 -2.510 -0.000 0.000
1991 1990 1993 1995 3 0.628 1.883 0.000 -2.510 -0.000 0.000
1991 1990 1993 1996 3 0.628 1.883 0.000 -2.510 -0.000 0.000
1992 1990 1993 1994 3 0.628 1.883 0.000 -2.510 -0.000 0.000
1992 1990 1993 1995 3 0.628 1.883 0.000 -2.510 -0.000 0.000
1992 1990 1993 1996 3 0.628 1.883 0.000 -2.510 -0.000 0.000
1997 1998 2001 2002 3 -0.778 -2.335 0.000 3.113 -0.000 0.000
1997 1998 2001 2005 3 -0.778 -2.335 0.000 3.113 -0.000 0.000
1998 2001 2002 2003 3 58.576 0.000 -58.576 -0.000 -0.000 0.000
1998 2001 2002 2004 3 58.576 0.000 -58.576 -0.000 -0.000 0.000
1998 2001 2002 2049 3 2.928800 -1.464400 0.209200 -1.673600 0.000000 0.000000
1998 2001 2005 2006 3 1.789 -5.052 -0.962 4.226 -0.000 0.000
1998 2001 2005 2007 3 1.789 -5.052 -0.962 4.226 -0.000 0.000
1999 1998 2001 2002 3 -0.778 -2.335 0.000 3.113 -0.000 0.000
1999 1998 2001 2005 3 -0.778 -2.335 0.000 3.113 -0.000 0.000
2000 1998 2001 2002 3 -0.778 -2.335 0.000 3.113 -0.000 0.000
2000 1998 2001 2005 3 -0.778 -2.335 0.000 3.113 -0.000 0.000
2002 1998 2001 2005 4 180.000 10.460 2
2001 2002 2049 2046 3 2.928800 -1.464400 0.209200 -1.673600 0.000000 0.000000
2001 2002 2049 2050 3 2.928800 -1.464400 0.209200 -1.673600 0.000000 0.000000
2001 2002 2049 2053 3 2.928800 -1.464400 0.209200 -1.673600 0.000000 0.000000
2001 2005 2007 2008 3 31.206 -9.768 -21.439 -0.000 -0.000 0.000
2002 2001 2005 2006 3 30.334 -5.230 -25.104 -0.000 -0.000 0.000
2002 2001 2005 2007 3 -5.858 -6.694 12.552 -0.000 -0.000 0.000
2003 2001 2002 2004 4 180.000 10.460 2
2005 2001 2002 2003 3 58.576 0.000 -58.576 -0.000 -0.000 0.000
2005 2001 2002 2004 3 58.576 0.000 -58.576 -0.000 -0.000 0.000
2005 2001 2002 2049 3 2.928800 -1.464400 0.209200 -1.673600 0.000000 0.000000
2006 2001 2005 2007 4 180.000 43.932 2
2002 2049 2050 2051 3 0.627600 1.882800 0.000000 -2.510400 0.000000 0.000000
2002 2049 2050 2052 3 0.627600 1.882800 0.000000 -2.510400 0.000000 0.000000
2002 2049 2050 2115 3 2.928800 -1.464400 0.209200 -1.673600 0.000000 0.000000
2002 2049 2053 2054 3 2.874410 0.581580 2.092000 -5.547990 0.000000 0.000000
2002 2049 2053 2055 3 2.874410 0.581580 2.092000 -5.547990 0.000000 0.000000
2003 2002 2049 2046 3 0.627600 1.882800 0.000000 -2.510400 0.000000 0.000000
2003 2002 2049 2050 3 0.627600 1.882800 0.000000 -2.510400 0.000000 0.000000
2003 2002 2049 2053 3 0.627600 1.882800 0.000000 -2.510400 0.000000 0.000000
2004 2002 2049 2046 3 0.627600 1.882800 0.000000 -2.510400 0.000000 0.000000
2004 2002 2049 2050 3 0.627600 1.882800 0.000000 -2.510400 0.000000 0.000000
2004 2002 2049 2053 3 0.627600 1.882800 0.000000 -2.510400 0.000000 0.000000
2045 2046 2049 2002 3 0.627600 1.882800 0.000000 -2.510400 0.000000 0.000000
2047 2046 2049 2002 3 0.627600 1.882800 0.000000 -2.510400 0.000000 0.000000
2048 2046 2049 2002 3 0.627600 1.882800 0.000000 -2.510400 0.000000 0.000000
2005 2007 2008 2009 3 0.414 1.243 0.000 -1.657 -0.000 0.000
2005 2007 2008 2010 3 0.414 1.243 0.000 -1.657 -0.000 0.000
2005 2007 2008 2011 3 -2.197 5.201 0.527 -3.531 -0.000 0.000
2006 2005 2007 2008 3 21.439 0.000 -21.439 -0.000 -0.000 0.000
2007 2008 2011 2012 3 0.979 2.937 0.000 -3.916 -0.000 0.000
2007 2008 2011 2013 3 0.979 2.937 0.000 -3.916 -0.000 0.000
2007 2008 2011 2014 3 2.874 0.582 2.092 -5.548 -0.000 0.000
2008 2011 2014 2015 3 0.628 1.883 0.000 -2.510 -0.000 0.000
2008 2011 2014 2016 3 0.628 1.883 0.000 -2.510 -0.000 0.000
2008 2011 2014 2017 3 2.301 -1.464 0.837 -1.674 -0.000 0.000
2009 2008 2011 2012 3 0.628 1.883 0.000 -2.510 -0.000 0.000
2009 2008 2011 2013 3 0.628 1.883 0.000 -2.510 -0.000 0.000
2009 2008 2011 2014 3 0.628 1.883 0.000 -2.510 -0.000 0.000
2010 2008 2011 2012 3 0.628 1.883 0.000 -2.510 -0.000 0.000
2010 2008 2011 2013 3 0.628 1.883 0.000 -2.510 -0.000 0.000
2010 2008 2011 2014 3 0.628 1.883 0.000 -2.510 -0.000 0.000
2011 2014 2017 2018 3 0.628 1.883 0.000 -2.510 -0.000 0.000
2011 2014 2017 2019 3 0.628 1.883 0.000 -2.510 -0.000 0.000
2011 2014 2017 2020 3 2.301 -1.464 0.837 -1.674 -0.000 0.000
2012 2011 2014 2015 3 0.628 1.883 0.000 -2.510 -0.000 0.000
2012 2011 2014 2016 3 0.628 1.883 0.000 -2.510 -0.000 0.000
2012 2011 2014 2017 3 0.628 1.883 0.000 -2.510 -0.000 0.000
2013 2011 2014 2015 3 0.628 1.883 0.000 -2.510 -0.000 0.000
2013 2011 2014 2016 3 0.628 1.883 0.000 -2.510 -0.000 0.000
2013 2011 2014 2017 3 0.628 1.883 0.000 -2.510 -0.000 0.000
2014 2017 2020 2021 3 0.628 1.883 0.000 -2.510 -0.000 0.000
2014 2017 2020 2022 3 0.628 1.883 0.000 -2.510 -0.000 0.000
2014 2017 2020 2023 3 2.301 -1.464 0.837 -1.674 -0.000 0.000
2015 2014 2017 2018 3 0.628 1.883 0.000 -2.510 -0.000 0.000
2015 2014 2017 2019 3 0.628 1.883 0.000 -2.510 -0.000 0.000
2015 2014 2017 2020 3 0.628 1.883 0.000 -2.510 -0.000 0.000
2016 2014 2017 2018 3 0.628 1.883 0.000 -2.510 -0.000 0.000
2016 2014 2017 2019 3 0.628 1.883 0.000 -2.510 -0.000 0.000
2016 2014 2017 2020 3 0.628 1.883 0.000 -2.510 -0.000 0.000
2017 2020 2023 2024 3 0.628 1.883 0.000 -2.510 -0.000 0.000
2017 2020 2023 2025 3 0.628 1.883 0.000 -2.510 -0.000 0.000
2017 2020 2023 2026 3 2.301 -1.464 0.837 -1.674 -0.000 0.000
2018 2017 2020 2021 3 0.628 1.883 0.000 -2.510 -0.000 0.000
2018 2017 2020 2022 3 0.628 1.883 0.000 -2.510 -0.000 0.000
2018 2017 2020 2023 3 0.628 1.883 0.000 -2.510 -0.000 0.000
2019 2017 2020 2021 3 0.628 1.883 0.000 -2.510 -0.000 0.000
2019 2017 2020 2022 3 0.628 1.883 0.000 -2.510 -0.000 0.000
2019 2017 2020 2023 3 0.628 1.883 0.000 -2.510 -0.000 0.000
2020 2023 2026 2027 3 0.628 1.883 0.000 -2.510 -0.000 0.000
2020 2023 2026 2028 3 0.628 1.883 0.000 -2.510 -0.000 0.000
2020 2023 2026 2029 3 2.301 -1.464 0.837 -1.674 -0.000 0.000
2021 2020 2023 2024 3 0.628 1.883 0.000 -2.510 -0.000 0.000
2021 2020 2023 2025 3 0.628 1.883 0.000 -2.510 -0.000 0.000
2021 2020 2023 2026 3 0.628 1.883 0.000 -2.510 -0.000 0.000
2022 2020 2023 2024 3 0.628 1.883 0.000 -2.510 -0.000 0.000
2022 2020 2023 2025 3 0.628 1.883 0.000 -2.510 -0.000 0.000
2022 2020 2023 2026 3 0.628 1.883 0.000 -2.510 -0.000 0.000
2023 2026 2029 2030 3 0.628 1.883 0.000 -2.510 -0.000 0.000
2023 2026 2029 2031 3 0.628 1.883 0.000 -2.510 -0.000 0.000
2023 2026 2029 2032 3 2.301 -1.464 0.837 -1.674 -0.000 0.000
2024 2023 2026 2027 3 0.628 1.883 0.000 -2.510 -0.000 0.000
2024 2023 2026 2028 3 0.628 1.883 0.000 -2.510 -0.000 0.000
2024 2023 2026 2029 3 0.628 1.883 0.000 -2.510 -0.000 0.000
2025 2023 2026 2027 3 0.628 1.883 0.000 -2.510 -0.000 0.000
2025 2023 2026 2028 3 0.628 1.883 0.000 -2.510 -0.000 0.000
2025 2023 2026 2029 3 0.628 1.883 0.000 -2.510 -0.000 0.000
2026 2029 2032 2033 3 0.628 1.883 0.000 -2.510 -0.000 0.000
2026 2029 2032 2034 3 0.628 1.883 0.000 -2.510 -0.000 0.000
2026 2029 2032 2035 3 2.301 -1.464 0.837 -1.674 -0.000 0.000
2027 2026 2029 2030 3 0.628 1.883 0.000 -2.510 -0.000 0.000
2027 2026 2029 2031 3 0.628 1.883 0.000 -2.510 -0.000 0.000
2027 2026 2029 2032 3 0.628 1.883 0.000 -2.510 -0.000 0.000
2028 2026 2029 2030 3 0.628 1.883 0.000 -2.510 -0.000 0.000
2028 2026 2029 2031 3 0.628 1.883 0.000 -2.510 -0.000 0.000
2028 2026 2029 2032 3 0.628 1.883 0.000 -2.510 -0.000 0.000
2029 2032 2035 2036 3 0.628 1.883 0.000 -2.510 -0.000 0.000
2029 2032 2035 2037 3 0.628 1.883 0.000 -2.510 -0.000 0.000
2029 2032 2035 2038 3 2.301 -1.464 0.837 -1.674 -0.000 0.000
2030 2029 2032 2033 3 0.628 1.883 0.000 -2.510 -0.000 0.000
2030 2029 2032 2034 3 0.628 1.883 0.000 -2.510 -0.000 0.000
2030 2029 2032 2035 3 0.628 1.883 0.000 -2.510 -0.000 0.000
2031 2029 2032 2033 3 0.628 1.883 0.000 -2.510 -0.000 0.000
2031 2029 2032 2034 3 0.628 1.883 0.000 -2.510 -0.000 0.000
2031 2029 2032 2035 3 0.628 1.883 0.000 -2.510 -0.000 0.000
2032 2035 2038 2039 3 0.628 1.883 0.000 -2.510 -0.000 0.000
2032 2035 2038 2040 3 0.628 1.883 0.000 -2.510 -0.000 0.000
2032 2035 2038 2041 3 2.301 -1.464 0.837 -1.674 -0.000 0.000
2033 2032 2035 2036 3 0.628 1.883 0.000 -2.510 -0.000 0.000
2033 2032 2035 2037 3 0.628 1.883 0.000 -2.510 -0.000 0.000
2033 2032 2035 2038 3 0.628 1.883 0.000 -2.510 -0.000 0.000
2034 2032 2035 2036 3 0.628 1.883 0.000 -2.510 -0.000 0.000
2034 2032 2035 2037 3 0.628 1.883 0.000 -2.510 -0.000 0.000
2034 2032 2035 2038 3 0.628 1.883 0.000 -2.510 -0.000 0.000
2035 2038 2041 2042 3 0.628 1.883 0.000 -2.510 -0.000 0.000
2035 2038 2041 2043 3 0.628 1.883 0.000 -2.510 -0.000 0.000
2035 2038 2041 2044 3 0.628 1.883 0.000 -2.510 -0.000 0.000
2036 2035 2038 2039 3 0.628 1.883 0.000 -2.510 -0.000 0.000
2036 2035 2038 2040 3 0.628 1.883 0.000 -2.510 -0.000 0.000
2036 2035 2038 2041 3 0.628 1.883 0.000 -2.510 -0.000 0.000
2037 2035 2038 2039 3 0.628 1.883 0.000 -2.510 -0.000 0.000
2037 2035 2038 2040 3 0.628 1.883 0.000 -2.510 -0.000 0.000
2037 2035 2038 2041 3 0.628 1.883 0.000 -2.510 -0.000 0.000
2039 2038 2041 2042 3 0.628 1.883 0.000 -2.510 -0.000 0.000
2039 2038 2041 2043 3 0.628 1.883 0.000 -2.510 -0.000 0.000
2039 2038 2041 2044 3 0.628 1.883 0.000 -2.510 -0.000 0.000
2040 2038 2041 2042 3 0.628 1.883 0.000 -2.510 -0.000 0.000
2040 2038 2041 2043 3 0.628 1.883 0.000 -2.510 -0.000 0.000
2040 2038 2041 2044 3 0.628 1.883 0.000 -2.510 -0.000 0.000
2045 2046 2049 2050 3 -0.778 -2.335 0.000 3.113 -0.000 0.000
2045 2046 2049 2053 3 -0.778 -2.335 0.000 3.113 -0.000 0.000
2046 2049 2050 2051 3 58.576 0.000 -58.576 -0.000 -0.000 0.000
2046 2049 2050 2052 3 58.576 0.000 -58.576 -0.000 -0.000 0.000
2046 2049 2050 2115 3 2.928800 -1.464400 0.209200 -1.673600 0.000000 0.000000
2046 2049 2053 2054 3 1.789 -5.052 -0.962 4.226 -0.000 0.000
2046 2049 2053 2055 3 1.789 -5.052 -0.962 4.226 -0.000 0.000
2047 2046 2049 2050 3 -0.778 -2.335 0.000 3.113 -0.000 0.000
2047 2046 2049 2053 3 -0.778 -2.335 0.000 3.113 -0.000 0.000
2048 2046 2049 2050 3 -0.778 -2.335 0.000 3.113 -0.000 0.000
2048 2046 2049 2053 3 -0.778 -2.335 0.000 3.113 -0.000 0.000
2050 2046 2049 2053 4 180.000 10.460 2
2049 2050 2115 2112 3 2.928800 -1.464400 0.209200 -1.673600 0.000000 0.000000
2049 2050 2115 2116 3 2.928800 -1.464400 0.209200 -1.673600 0.000000 0.000000
2049 2050 2115 2119 3 2.928800 -1.464400 0.209200 -1.673600 0.000000 0.000000
2049 2053 2055 2056 3 31.206 -9.768 -21.439 -0.000 -0.000 0.000
2050 2049 2053 2054 3 30.334 -5.230 -25.104 -0.000 -0.000 0.000
2050 2049 2053 2055 3 -5.858 -6.694 12.552 -0.000 -0.000 0.000
2051 2049 2050 2052 4 180.000 10.460 2
2053 2049 2050 2051 3 58.576 0.000 -58.576 -0.000 -0.000 0.000
2053 2049 2050 2052 3 58.576 0.000 -58.576 -0.000 -0.000 0.000
2053 2049 2050 2115 3 2.928800 -1.464400 0.209200 -1.673600 0.000000 0.000000
2054 2049 2053 2055 4 180.000 43.932 2
2050 2115 2116 2117 3 0.627600 1.882800 0.000000 -2.510400 0.000000 0.000000
2050 2115 2116 2118 3 0.627600 1.882800 0.000000 -2.510400 0.000000 0.000000
2050 2115 2116 2181 3 2.928800 -1.464400 0.209200 -1.673600 0.000000 0.000000
2050 2115 2119 2120 3 2.874410 0.581580 2.092000 -5.547990 0.000000 0.000000
2050 2115 2119 2121 3 2.874410 0.581580 2.092000 -5.547990 0.000000 0.000000
2051 2050 2115 2112 3 0.627600 1.882800 0.000000 -2.510400 0.000000 0.000000
2051 2050 2115 2116 3 0.627600 1.882800 0.000000 -2.510400 0.000000 0.000000
2051 2050 2115 2119 3 0.627600 1.882800 0.000000 -2.510400 0.000000 0.000000
2052 2050 2115 2112 3 0.627600 1.882800 0.000000 -2.510400 0.000000 0.000000
2052 2050 2115 2116 3 0.627600 1.882800 0.000000 -2.510400 0.000000 0.000000
2052 2050 2115 2119 3 0.627600 1.882800 0.000000 -2.510400 0.000000 0.000000
2111 2112 2115 2050 3 0.627600 1.882800 0.000000 -2.510400 0.000000 0.000000
2113 2112 2115 2050 3 0.627600 1.882800 0.000000 -2.510400 0.000000 0.000000
2114 2112 2115 2050 3 0.627600 1.882800 0.000000 -2.510400 0.000000 0.000000
2053 2055 2056 2057 3 0.414 1.243 0.000 -1.657 -0.000 0.000
2053 2055 2056 2058 3 0.414 1.243 0.000 -1.657 -0.000 0.000
2053 2055 2056 2059 3 -2.197 5.201 0.527 -3.531 -0.000 0.000
2054 2053 2055 2056 3 21.439 0.000 -21.439 -0.000 -0.000 0.000
2055 2056 2059 2060 3 0.979 2.937 0.000 -3.916 -0.000 0.000
2055 2056 2059 2061 3 0.979 2.937 0.000 -3.916 -0.000 0.000
2055 2056 2059 2062 3 2.874 0.582 2.092 -5.548 -0.000 0.000
2056 2059 2062 2063 3 0.628 1.883 0.000 -2.510 -0.000 0.000
2056 2059 2062 2064 3 0.628 1.883 0.000 -2.510 -0.000 0.000
2056 2059 2062 2065 3 2.301 -1.464 0.837 -1.674 -0.000 0.000
2057 2056 2059 2060 3 0.628 1.883 0.000 -2.510 -0.000 0.000
2057 2056 2059 2061 3 0.628 1.883 0.000 -2.510 -0.000 0.000
2057 2056 2059 2062 3 0.628 1.883 0.000 -2.510 -0.000 0.000
2058 2056 2059 2060 3 0.628 1.883 0.000 -2.510 -0.000 0.000
2058 2056 2059 2061 3 0.628 1.883 0.000 -2.510 -0.000 0.000
2058 2056 2059 2062 3 0.628 1.883 0.000 -2.510 -0.000 0.000
2059 2062 2065 2066 3 0.628 1.883 0.000 -2.510 -0.000 0.000
2059 2062 2065 2067 3 0.628 1.883 0.000 -2.510 -0.000 0.000
2059 2062 2065 2068 3 2.301 -1.464 0.837 -1.674 -0.000 0.000
2060 2059 2062 2063 3 0.628 1.883 0.000 -2.510 -0.000 0.000
2060 2059 2062 2064 3 0.628 1.883 0.000 -2.510 -0.000 0.000
2060 2059 2062 2065 3 0.628 1.883 0.000 -2.510 -0.000 0.000
2061 2059 2062 2063 3 0.628 1.883 0.000 -2.510 -0.000 0.000
2061 2059 2062 2064 3 0.628 1.883 0.000 -2.510 -0.000 0.000
2061 2059 2062 2065 3 0.628 1.883 0.000 -2.510 -0.000 0.000
2062 2065 2068 2069 3 0.628 1.883 0.000 -2.510 -0.000 0.000
2062 2065 2068 2070 3 0.628 1.883 0.000 -2.510 -0.000 0.000
2062 2065 2068 2071 3 2.301 -1.464 0.837 -1.674 -0.000 0.000
2063 2062 2065 2066 3 0.628 1.883 0.000 -2.510 -0.000 0.000
2063 2062 2065 2067 3 0.628 1.883 0.000 -2.510 -0.000 0.000
2063 2062 2065 2068 3 0.628 1.883 0.000 -2.510 -0.000 0.000
2064 2062 2065 2066 3 0.628 1.883 0.000 -2.510 -0.000 0.000
2064 2062 2065 2067 3 0.628 1.883 0.000 -2.510 -0.000 0.000
2064 2062 2065 2068 3 0.628 1.883 0.000 -2.510 -0.000 0.000
2065 2068 2071 2072 3 0.628 1.883 0.000 -2.510 -0.000 0.000
2065 2068 2071 2073 3 0.628 1.883 0.000 -2.510 -0.000 0.000
2065 2068 2071 2074 3 2.301 -1.464 0.837 -1.674 -0.000 0.000
2066 2065 2068 2069 3 0.628 1.883 0.000 -2.510 -0.000 0.000
2066 2065 2068 2070 3 0.628 1.883 0.000 -2.510 -0.000 0.000
2066 2065 2068 2071 3 0.628 1.883 0.000 -2.510 -0.000 0.000
2067 2065 2068 2069 3 0.628 1.883 0.000 -2.510 -0.000 0.000
2067 2065 2068 2070 3 0.628 1.883 0.000 -2.510 -0.000 0.000
2067 2065 2068 2071 3 0.628 1.883 0.000 -2.510 -0.000 0.000
2068 2071 2074 2075 3 0.628 1.883 0.000 -2.510 -0.000 0.000
2068 2071 2074 2076 3 0.628 1.883 0.000 -2.510 -0.000 0.000
2068 2071 2074 2077 3 2.301 -1.464 0.837 -1.674 -0.000 0.000
2069 2068 2071 2072 3 0.628 1.883 0.000 -2.510 -0.000 0.000
2069 2068 2071 2073 3 0.628 1.883 0.000 -2.510 -0.000 0.000
2069 2068 2071 2074 3 0.628 1.883 0.000 -2.510 -0.000 0.000
2070 2068 2071 2072 3 0.628 1.883 0.000 -2.510 -0.000 0.000
2070 2068 2071 2073 3 0.628 1.883 0.000 -2.510 -0.000 0.000
2070 2068 2071 2074 3 0.628 1.883 0.000 -2.510 -0.000 0.000
2071 2074 2077 2078 3 0.628 1.883 0.000 -2.510 -0.000 0.000
2071 2074 2077 2079 3 0.628 1.883 0.000 -2.510 -0.000 0.000
2071 2074 2077 2080 3 2.301 -1.464 0.837 -1.674 -0.000 0.000
2072 2071 2074 2075 3 0.628 1.883 0.000 -2.510 -0.000 0.000
2072 2071 2074 2076 3 0.628 1.883 0.000 -2.510 -0.000 0.000
2072 2071 2074 2077 3 0.628 1.883 0.000 -2.510 -0.000 0.000
2073 2071 2074 2075 3 0.628 1.883 0.000 -2.510 -0.000 0.000
2073 2071 2074 2076 3 0.628 1.883 0.000 -2.510 -0.000 0.000
2073 2071 2074 2077 3 0.628 1.883 0.000 -2.510 -0.000 0.000
2074 2077 2080 2081 3 0.628 1.883 0.000 -2.510 -0.000 0.000
2074 2077 2080 2082 3 0.628 1.883 0.000 -2.510 -0.000 0.000
2074 2077 2080 2083 3 2.301 -1.464 0.837 -1.674 -0.000 0.000
2075 2074 2077 2078 3 0.628 1.883 0.000 -2.510 -0.000 0.000
2075 2074 2077 2079 3 0.628 1.883 0.000 -2.510 -0.000 0.000
2075 2074 2077 2080 3 0.628 1.883 0.000 -2.510 -0.000 0.000
2076 2074 2077 2078 3 0.628 1.883 0.000 -2.510 -0.000 0.000
2076 2074 2077 2079 3 0.628 1.883 0.000 -2.510 -0.000 0.000
2076 2074 2077 2080 3 0.628 1.883 0.000 -2.510 -0.000 0.000
2077 2080 2083 2084 3 0.628 1.883 0.000 -2.510 -0.000 0.000
2077 2080 2083 2085 3 0.628 1.883 0.000 -2.510 -0.000 0.000
2077 2080 2083 2086 3 2.301 -1.464 0.837 -1.674 -0.000 0.000
2078 2077 2080 2081 3 0.628 1.883 0.000 -2.510 -0.000 0.000
2078 2077 2080 2082 3 0.628 1.883 0.000 -2.510 -0.000 0.000
2078 2077 2080 2083 3 0.628 1.883 0.000 -2.510 -0.000 0.000
2079 2077 2080 2081 3 0.628 1.883 0.000 -2.510 -0.000 0.000
2079 2077 2080 2082 3 0.628 1.883 0.000 -2.510 -0.000 0.000
2079 2077 2080 2083 3 0.628 1.883 0.000 -2.510 -0.000 0.000
2080 2083 2086 2087 3 0.628 1.883 0.000 -2.510 -0.000 0.000
2080 2083 2086 2088 3 0.628 1.883 0.000 -2.510 -0.000 0.000
2080 2083 2086 2089 3 2.301 -1.464 0.837 -1.674 -0.000 0.000
2081 2080 2083 2084 3 0.628 1.883 0.000 -2.510 -0.000 0.000
2081 2080 2083 2085 3 0.628 1.883 0.000 -2.510 -0.000 0.000
2081 2080 2083 2086 3 0.628 1.883 0.000 -2.510 -0.000 0.000
2082 2080 2083 2084 3 0.628 1.883 0.000 -2.510 -0.000 0.000
2082 2080 2083 2085 3 0.628 1.883 0.000 -2.510 -0.000 0.000
2082 2080 2083 2086 3 0.628 1.883 0.000 -2.510 -0.000 0.000
2083 2086 2089 2090 3 0.628 1.883 0.000 -2.510 -0.000 0.000
2083 2086 2089 2091 3 0.628 1.883 0.000 -2.510 -0.000 0.000
2083 2086 2089 2092 3 2.301 -1.464 0.837 -1.674 -0.000 0.000
2084 2083 2086 2087 3 0.628 1.883 0.000 -2.510 -0.000 0.000
2084 2083 2086 2088 3 0.628 1.883 0.000 -2.510 -0.000 0.000
2084 2083 2086 2089 3 0.628 1.883 0.000 -2.510 -0.000 0.000
2085 2083 2086 2087 3 0.628 1.883 0.000 -2.510 -0.000 0.000
2085 2083 2086 2088 3 0.628 1.883 0.000 -2.510 -0.000 0.000
2085 2083 2086 2089 3 0.628 1.883 0.000 -2.510 -0.000 0.000
2086 2089 2092 2093 3 0.628 1.883 0.000 -2.510 -0.000 0.000
2086 2089 2092 2094 3 0.628 1.883 0.000 -2.510 -0.000 0.000
2086 2089 2092 2095 3 2.301 -1.464 0.837 -1.674 -0.000 0.000
2087 2086 2089 2090 3 0.628 1.883 0.000 -2.510 -0.000 0.000
2087 2086 2089 2091 3 0.628 1.883 0.000 -2.510 -0.000 0.000
2087 2086 2089 2092 3 0.628 1.883 0.000 -2.510 -0.000 0.000
2088 2086 2089 2090 3 0.628 1.883 0.000 -2.510 -0.000 0.000
2088 2086 2089 2091 3 0.628 1.883 0.000 -2.510 -0.000 0.000
2088 2086 2089 2092 3 0.628 1.883 0.000 -2.510 -0.000 0.000
2089 2092 2095 2096 3 0.628 1.883 0.000 -2.510 -0.000 0.000
2089 2092 2095 2097 3 0.628 1.883 0.000 -2.510 -0.000 0.000
2089 2092 2095 2098 3 2.301 -1.464 0.837 -1.674 -0.000 0.000
2090 2089 2092 2093 3 0.628 1.883 0.000 -2.510 -0.000 0.000
2090 2089 2092 2094 3 0.628 1.883 0.000 -2.510 -0.000 0.000
2090 2089 2092 2095 3 0.628 1.883 0.000 -2.510 -0.000 0.000
2091 2089 2092 2093 3 0.628 1.883 0.000 -2.510 -0.000 0.000
2091 2089 2092 2094 3 0.628 1.883 0.000 -2.510 -0.000 0.000
2091 2089 2092 2095 3 0.628 1.883 0.000 -2.510 -0.000 0.000
2092 2095 2098 2099 3 0.628 1.883 0.000 -2.510 -0.000 0.000
2092 2095 2098 2100 3 0.628 1.883 0.000 -2.510 -0.000 0.000
2092 2095 2098 2101 3 2.301 -1.464 0.837 -1.674 -0.000 0.000
2093 2092 2095 2096 3 0.628 1.883 0.000 -2.510 -0.000 0.000
2093 2092 2095 2097 3 0.628 1.883 0.000 -2.510 -0.000 0.000
2093 2092 2095 2098 3 0.628 1.883 0.000 -2.510 -0.000 0.000
2094 2092 2095 2096 3 0.628 1.883 0.000 -2.510 -0.000 0.000
2094 2092 2095 2097 3 0.628 1.883 0.000 -2.510 -0.000 0.000
2094 2092 2095 2098 3 0.628 1.883 0.000 -2.510 -0.000 0.000
2095 2098 2101 2102 3 0.628 1.883 0.000 -2.510 -0.000 0.000
2095 2098 2101 2103 3 0.628 1.883 0.000 -2.510 -0.000 0.000
2095 2098 2101 2104 3 2.301 -1.464 0.837 -1.674 -0.000 0.000
2096 2095 2098 2099 3 0.628 1.883 0.000 -2.510 -0.000 0.000
2096 2095 2098 2100 3 0.628 1.883 0.000 -2.510 -0.000 0.000
2096 2095 2098 2101 3 0.628 1.883 0.000 -2.510 -0.000 0.000
2097 2095 2098 2099 3 0.628 1.883 0.000 -2.510 -0.000 0.000
2097 2095 2098 2100 3 0.628 1.883 0.000 -2.510 -0.000 0.000
2097 2095 2098 2101 3 0.628 1.883 0.000 -2.510 -0.000 0.000
2098 2101 2104 2105 3 0.628 1.883 0.000 -2.510 -0.000 0.000
2098 2101 2104 2106 3 0.628 1.883 0.000 -2.510 -0.000 0.000
2098 2101 2104 2107 3 2.301 -1.464 0.837 -1.674 -0.000 0.000
2099 2098 2101 2102 3 0.628 1.883 0.000 -2.510 -0.000 0.000
2099 2098 2101 2103 3 0.628 1.883 0.000 -2.510 -0.000 0.000
2099 2098 2101 2104 3 0.628 1.883 0.000 -2.510 -0.000 0.000
2100 2098 2101 2102 3 0.628 1.883 0.000 -2.510 -0.000 0.000
2100 2098 2101 2103 3 0.628 1.883 0.000 -2.510 -0.000 0.000
2100 2098 2101 2104 3 0.628 1.883 0.000 -2.510 -0.000 0.000
2101 2104 2107 2108 3 0.628 1.883 0.000 -2.510 -0.000 0.000
2101 2104 2107 2109 3 0.628 1.883 0.000 -2.510 -0.000 0.000
2101 2104 2107 2110 3 0.628 1.883 0.000 -2.510 -0.000 0.000
2102 2101 2104 2105 3 0.628 1.883 0.000 -2.510 -0.000 0.000
2102 2101 2104 2106 3 0.628 1.883 0.000 -2.510 -0.000 0.000
2102 2101 2104 2107 3 0.628 1.883 0.000 -2.510 -0.000 0.000
2103 2101 2104 2105 3 0.628 1.883 0.000 -2.510 -0.000 0.000
2103 2101 2104 2106 3 0.628 1.883 0.000 -2.510 -0.000 0.000
2103 2101 2104 2107 3 0.628 1.883 0.000 -2.510 -0.000 0.000
2105 2104 2107 2108 3 0.628 1.883 0.000 -2.510 -0.000 0.000
2105 2104 2107 2109 3 0.628 1.883 0.000 -2.510 -0.000 0.000
2105 2104 2107 2110 3 0.628 1.883 0.000 -2.510 -0.000 0.000
2106 2104 2107 2108 3 0.628 1.883 0.000 -2.510 -0.000 0.000
2106 2104 2107 2109 3 0.628 1.883 0.000 -2.510 -0.000 0.000
2106 2104 2107 2110 3 0.628 1.883 0.000 -2.510 -0.000 0.000
2111 2112 2115 2116 3 -0.778 -2.335 0.000 3.113 -0.000 0.000
2111 2112 2115 2119 3 -0.778 -2.335 0.000 3.113 -0.000 0.000
2112 2115 2116 2117 3 58.576 0.000 -58.576 -0.000 -0.000 0.000
2112 2115 2116 2118 3 58.576 0.000 -58.576 -0.000 -0.000 0.000
2112 2115 2116 2181 3 2.928800 -1.464400 0.209200 -1.673600 0.000000 0.000000
2112 2115 2119 2120 3 1.789 -5.052 -0.962 4.226 -0.000 0.000
2112 2115 2119 2121 3 1.789 -5.052 -0.962 4.226 -0.000 0.000
2113 2112 2115 2116 3 -0.778 -2.335 0.000 3.113 -0.000 0.000
2113 2112 2115 2119 3 -0.778 -2.335 0.000 3.113 -0.000 0.000
2114 2112 2115 2116 3 -0.778 -2.335 0.000 3.113 -0.000 0.000
2114 2112 2115 2119 3 -0.778 -2.335 0.000 3.113 -0.000 0.000
2116 2112 2115 2119 4 180.000 10.460 2
2115 2116 2181 2178 3 2.928800 -1.464400 0.209200 -1.673600 0.000000 0.000000
2115 2116 2181 2182 3 2.928800 -1.464400 0.209200 -1.673600 0.000000 0.000000
2115 2116 2181 2185 3 2.928800 -1.464400 0.209200 -1.673600 0.000000 0.000000
2115 2119 2121 2122 3 31.206 -9.768 -21.439 -0.000 -0.000 0.000
2116 2115 2119 2120 3 30.334 -5.230 -25.104 -0.000 -0.000 0.000
2116 2115 2119 2121 3 -5.858 -6.694 12.552 -0.000 -0.000 0.000
2117 2115 2116 2118 4 180.000 10.460 2
2119 2115 2116 2117 3 58.576 0.000 -58.576 -0.000 -0.000 0.000
2119 2115 2116 2118 3 58.576 0.000 -58.576 -0.000 -0.000 0.000
2119 2115 2116 2181 3 2.928800 -1.464400 0.209200 -1.673600 0.000000 0.000000
2120 2115 2119 2121 4 180.000 43.932 2
2116 2181 2182 2183 3 0.627600 1.882800 0.000000 -2.510400 0.000000 0.000000
2116 2181 2182 2184 3 0.627600 1.882800 0.000000 -2.510400 0.000000 0.000000
2116 2181 2182 2217 3 2.928800 -1.464400 0.209200 -1.673600 0.000000 0.000000
2116 2181 2185 2186 3 2.874410 0.581580 2.092000 -5.547990 0.000000 0.000000
2116 2181 2185 2187 3 2.874410 0.581580 2.092000 -5.547990 0.000000 0.000000
2117 2116 2181 2178 3 0.627600 1.882800 0.000000 -2.510400 0.000000 0.000000
2117 2116 2181 2182 3 0.627600 1.882800 0.000000 -2.510400 0.000000 0.000000
2117 2116 2181 2185 3 0.627600 1.882800 0.000000 -2.510400 0.000000 0.000000
2118 2116 2181 2178 3 0.627600 1.882800 0.000000 -2.510400 0.000000 0.000000
2118 2116 2181 2182 3 0.627600 1.882800 0.000000 -2.510400 0.000000 0.000000
2118 2116 2181 2185 3 0.627600 1.882800 0.000000 -2.510400 0.000000 0.000000
2177 2178 2181 2116 3 0.627600 1.882800 0.000000 -2.510400 0.000000 0.000000
2179 2178 2181 2116 3 0.627600 1.882800 0.000000 -2.510400 0.000000 0.000000
2180 2178 2181 2116 3 0.627600 1.882800 0.000000 -2.510400 0.000000 0.000000
2119 2121 2122 2123 3 0.414 1.243 0.000 -1.657 -0.000 0.000
2119 2121 2122 2124 3 0.414 1.243 0.000 -1.657 -0.000 0.000
2119 2121 2122 2125 3 -2.197 5.201 0.527 -3.531 -0.000 0.000
2120 2119 2121 2122 3 21.439 0.000 -21.439 -0.000 -0.000 0.000
2121 2122 2125 2126 3 0.979 2.937 0.000 -3.916 -0.000 0.000
2121 2122 2125 2127 3 0.979 2.937 0.000 -3.916 -0.000 0.000
2121 2122 2125 2128 3 2.874 0.582 2.092 -5.548 -0.000 0.000
2122 2125 2128 2129 3 0.628 1.883 0.000 -2.510 -0.000 0.000
2122 2125 2128 2130 3 0.628 1.883 0.000 -2.510 -0.000 0.000
2122 2125 2128 2131 3 2.301 -1.464 0.837 -1.674 -0.000 0.000
2123 2122 2125 2126 3 0.628 1.883 0.000 -2.510 -0.000 0.000
2123 2122 2125 2127 3 0.628 1.883 0.000 -2.510 -0.000 0.000
2123 2122 2125 2128 3 0.628 1.883 0.000 -2.510 -0.000 0.000
2124 2122 2125 2126 3 0.628 1.883 0.000 -2.510 -0.000 0.000
2124 2122 2125 2127 3 0.628 1.883 0.000 -2.510 -0.000 0.000
2124 2122 2125 2128 3 0.628 1.883 0.000 -2.510 -0.000 0.000
2125 2128 2131 2132 3 0.628 1.883 0.000 -2.510 -0.000 0.000
2125 2128 2131 2133 3 0.628 1.883 0.000 -2.510 -0.000 0.000
2125 2128 2131 2134 3 2.301 -1.464 0.837 -1.674 -0.000 0.000
2126 2125 2128 2129 3 0.628 1.883 0.000 -2.510 -0.000 0.000
2126 2125 2128 2130 3 0.628 1.883 0.000 -2.510 -0.000 0.000
2126 2125 2128 2131 3 0.628 1.883 0.000 -2.510 -0.000 0.000
2127 2125 2128 2129 3 0.628 1.883 0.000 -2.510 -0.000 0.000
2127 2125 2128 2130 3 0.628 1.883 0.000 -2.510 -0.000 0.000
2127 2125 2128 2131 3 0.628 1.883 0.000 -2.510 -0.000 0.000
2128 2131 2134 2135 3 0.628 1.883 0.000 -2.510 -0.000 0.000
2128 2131 2134 2136 3 0.628 1.883 0.000 -2.510 -0.000 0.000
2128 2131 2134 2137 3 2.301 -1.464 0.837 -1.674 -0.000 0.000
2129 2128 2131 2132 3 0.628 1.883 0.000 -2.510 -0.000 0.000
2129 2128 2131 2133 3 0.628 1.883 0.000 -2.510 -0.000 0.000
2129 2128 2131 2134 3 0.628 1.883 0.000 -2.510 -0.000 0.000
2130 2128 2131 2132 3 0.628 1.883 0.000 -2.510 -0.000 0.000
2130 2128 2131 2133 3 0.628 1.883 0.000 -2.510 -0.000 0.000
2130 2128 2131 2134 3 0.628 1.883 0.000 -2.510 -0.000 0.000
2131 2134 2137 2138 3 0.628 1.883 0.000 -2.510 -0.000 0.000
2131 2134 2137 2139 3 0.628 1.883 0.000 -2.510 -0.000 0.000
2131 2134 2137 2140 3 2.301 -1.464 0.837 -1.674 -0.000 0.000
2132 2131 2134 2135 3 0.628 1.883 0.000 -2.510 -0.000 0.000
2132 2131 2134 2136 3 0.628 1.883 0.000 -2.510 -0.000 0.000
2132 2131 2134 2137 3 0.628 1.883 0.000 -2.510 -0.000 0.000
2133 2131 2134 2135 3 0.628 1.883 0.000 -2.510 -0.000 0.000
2133 2131 2134 2136 3 0.628 1.883 0.000 -2.510 -0.000 0.000
2133 2131 2134 2137 3 0.628 1.883 0.000 -2.510 -0.000 0.000
2134 2137 2140 2141 3 0.628 1.883 0.000 -2.510 -0.000 0.000
2134 2137 2140 2142 3 0.628 1.883 0.000 -2.510 -0.000 0.000
2134 2137 2140 2143 3 2.301 -1.464 0.837 -1.674 -0.000 0.000
2135 2134 2137 2138 3 0.628 1.883 0.000 -2.510 -0.000 0.000
2135 2134 2137 2139 3 0.628 1.883 0.000 -2.510 -0.000 0.000
2135 2134 2137 2140 3 0.628 1.883 0.000 -2.510 -0.000 0.000
2136 2134 2137 2138 3 0.628 1.883 0.000 -2.510 -0.000 0.000
2136 2134 2137 2139 3 0.628 1.883 0.000 -2.510 -0.000 0.000
2136 2134 2137 2140 3 0.628 1.883 0.000 -2.510 -0.000 0.000
2137 2140 2143 2144 3 0.628 1.883 0.000 -2.510 -0.000 0.000
2137 2140 2143 2145 3 0.628 1.883 0.000 -2.510 -0.000 0.000
2137 2140 2143 2146 3 2.301 -1.464 0.837 -1.674 -0.000 0.000
2138 2137 2140 2141 3 0.628 1.883 0.000 -2.510 -0.000 0.000
2138 2137 2140 2142 3 0.628 1.883 0.000 -2.510 -0.000 0.000
2138 2137 2140 2143 3 0.628 1.883 0.000 -2.510 -0.000 0.000
2139 2137 2140 2141 3 0.628 1.883 0.000 -2.510 -0.000 0.000
2139 2137 2140 2142 3 0.628 1.883 0.000 -2.510 -0.000 0.000
2139 2137 2140 2143 3 0.628 1.883 0.000 -2.510 -0.000 0.000
2140 2143 2146 2147 3 0.628 1.883 0.000 -2.510 -0.000 0.000
2140 2143 2146 2148 3 0.628 1.883 0.000 -2.510 -0.000 0.000
2140 2143 2146 2149 3 2.301 -1.464 0.837 -1.674 -0.000 0.000
2141 2140 2143 2144 3 0.628 1.883 0.000 -2.510 -0.000 0.000
2141 2140 2143 2145 3 0.628 1.883 0.000 -2.510 -0.000 0.000
2141 2140 2143 2146 3 0.628 1.883 0.000 -2.510 -0.000 0.000
2142 2140 2143 2144 3 0.628 1.883 0.000 -2.510 -0.000 0.000
2142 2140 2143 2145 3 0.628 1.883 0.000 -2.510 -0.000 0.000
2142 2140 2143 2146 3 0.628 1.883 0.000 -2.510 -0.000 0.000
2143 2146 2149 2150 3 0.628 1.883 0.000 -2.510 -0.000 0.000
2143 2146 2149 2151 3 0.628 1.883 0.000 -2.510 -0.000 0.000
2143 2146 2149 2152 3 2.301 -1.464 0.837 -1.674 -0.000 0.000
2144 2143 2146 2147 3 0.628 1.883 0.000 -2.510 -0.000 0.000
2144 2143 2146 2148 3 0.628 1.883 0.000 -2.510 -0.000 0.000
2144 2143 2146 2149 3 0.628 1.883 0.000 -2.510 -0.000 0.000
2145 2143 2146 2147 3 0.628 1.883 0.000 -2.510 -0.000 0.000
2145 2143 2146 2148 3 0.628 1.883 0.000 -2.510 -0.000 0.000
2145 2143 2146 2149 3 0.628 1.883 0.000 -2.510 -0.000 0.000
2146 2149 2152 2153 3 0.628 1.883 0.000 -2.510 -0.000 0.000
2146 2149 2152 2154 3 0.628 1.883 0.000 -2.510 -0.000 0.000
2146 2149 2152 2155 3 2.301 -1.464 0.837 -1.674 -0.000 0.000
2147 2146 2149 2150 3 0.628 1.883 0.000 -2.510 -0.000 0.000
2147 2146 2149 2151 3 0.628 1.883 0.000 -2.510 -0.000 0.000
2147 2146 2149 2152 3 0.628 1.883 0.000 -2.510 -0.000 0.000
2148 2146 2149 2150 3 0.628 1.883 0.000 -2.510 -0.000 0.000
2148 2146 2149 2151 3 0.628 1.883 0.000 -2.510 -0.000 0.000
2148 2146 2149 2152 3 0.628 1.883 0.000 -2.510 -0.000 0.000
2149 2152 2155 2156 3 0.628 1.883 0.000 -2.510 -0.000 0.000
2149 2152 2155 2157 3 0.628 1.883 0.000 -2.510 -0.000 0.000
2149 2152 2155 2158 3 2.301 -1.464 0.837 -1.674 -0.000 0.000
2150 2149 2152 2153 3 0.628 1.883 0.000 -2.510 -0.000 0.000
2150 2149 2152 2154 3 0.628 1.883 0.000 -2.510 -0.000 0.000
2150 2149 2152 2155 3 0.628 1.883 0.000 -2.510 -0.000 0.000
2151 2149 2152 2153 3 0.628 1.883 0.000 -2.510 -0.000 0.000
2151 2149 2152 2154 3 0.628 1.883 0.000 -2.510 -0.000 0.000
2151 2149 2152 2155 3 0.628 1.883 0.000 -2.510 -0.000 0.000
2152 2155 2158 2159 3 0.628 1.883 0.000 -2.510 -0.000 0.000
2152 2155 2158 2160 3 0.628 1.883 0.000 -2.510 -0.000 0.000
2152 2155 2158 2161 3 2.301 -1.464 0.837 -1.674 -0.000 0.000
2153 2152 2155 2156 3 0.628 1.883 0.000 -2.510 -0.000 0.000
2153 2152 2155 2157 3 0.628 1.883 0.000 -2.510 -0.000 0.000
2153 2152 2155 2158 3 0.628 1.883 0.000 -2.510 -0.000 0.000
2154 2152 2155 2156 3 0.628 1.883 0.000 -2.510 -0.000 0.000
2154 2152 2155 2157 3 0.628 1.883 0.000 -2.510 -0.000 0.000
2154 2152 2155 2158 3 0.628 1.883 0.000 -2.510 -0.000 0.000
2155 2158 2161 2162 3 0.628 1.883 0.000 -2.510 -0.000 0.000
2155 2158 2161 2163 3 0.628 1.883 0.000 -2.510 -0.000 0.000
2155 2158 2161 2164 3 2.301 -1.464 0.837 -1.674 -0.000 0.000
2156 2155 2158 2159 3 0.628 1.883 0.000 -2.510 -0.000 0.000
2156 2155 2158 2160 3 0.628 1.883 0.000 -2.510 -0.000 0.000
2156 2155 2158 2161 3 0.628 1.883 0.000 -2.510 -0.000 0.000
2157 2155 2158 2159 3 0.628 1.883 0.000 -2.510 -0.000 0.000
2157 2155 2158 2160 3 0.628 1.883 0.000 -2.510 -0.000 0.000
2157 2155 2158 2161 3 0.628 1.883 0.000 -2.510 -0.000 0.000
2158 2161 2164 2165 3 0.628 1.883 0.000 -2.510 -0.000 0.000
2158 2161 2164 2166 3 0.628 1.883 0.000 -2.510 -0.000 0.000
2158 2161 2164 2167 3 2.301 -1.464 0.837 -1.674 -0.000 0.000
2159 2158 2161 2162 3 0.628 1.883 0.000 -2.510 -0.000 0.000
2159 2158 2161 2163 3 0.628 1.883 0.000 -2.510 -0.000 0.000
2159 2158 2161 2164 3 0.628 1.883 0.000 -2.510 -0.000 0.000
2160 2158 2161 2162 3 0.628 1.883 0.000 -2.510 -0.000 0.000
2160 2158 2161 2163 3 0.628 1.883 0.000 -2.510 -0.000 0.000
2160 2158 2161 2164 3 0.628 1.883 0.000 -2.510 -0.000 0.000
2161 2164 2167 2168 3 0.628 1.883 0.000 -2.510 -0.000 0.000
2161 2164 2167 2169 3 0.628 1.883 0.000 -2.510 -0.000 0.000
2161 2164 2167 2170 3 2.301 -1.464 0.837 -1.674 -0.000 0.000
2162 2161 2164 2165 3 0.628 1.883 0.000 -2.510 -0.000 0.000
2162 2161 2164 2166 3 0.628 1.883 0.000 -2.510 -0.000 0.000
2162 2161 2164 2167 3 0.628 1.883 0.000 -2.510 -0.000 0.000
2163 2161 2164 2165 3 0.628 1.883 0.000 -2.510 -0.000 0.000
2163 2161 2164 2166 3 0.628 1.883 0.000 -2.510 -0.000 0.000
2163 2161 2164 2167 3 0.628 1.883 0.000 -2.510 -0.000 0.000
2164 2167 2170 2171 3 0.628 1.883 0.000 -2.510 -0.000 0.000
2164 2167 2170 2172 3 0.628 1.883 0.000 -2.510 -0.000 0.000
2164 2167 2170 2173 3 2.301 -1.464 0.837 -1.674 -0.000 0.000
2165 2164 2167 2168 3 0.628 1.883 0.000 -2.510 -0.000 0.000
2165 2164 2167 2169 3 0.628 1.883 0.000 -2.510 -0.000 0.000
2165 2164 2167 2170 3 0.628 1.883 0.000 -2.510 -0.000 0.000
2166 2164 2167 2168 3 0.628 1.883 0.000 -2.510 -0.000 0.000
2166 2164 2167 2169 3 0.628 1.883 0.000 -2.510 -0.000 0.000
2166 2164 2167 2170 3 0.628 1.883 0.000 -2.510 -0.000 0.000
2167 2170 2173 2174 3 0.628 1.883 0.000 -2.510 -0.000 0.000
2167 2170 2173 2175 3 0.628 1.883 0.000 -2.510 -0.000 0.000
2167 2170 2173 2176 3 0.628 1.883 0.000 -2.510 -0.000 0.000
2168 2167 2170 2171 3 0.628 1.883 0.000 -2.510 -0.000 0.000
2168 2167 2170 2172 3 0.628 1.883 0.000 -2.510 -0.000 0.000
2168 2167 2170 2173 3 0.628 1.883 0.000 -2.510 -0.000 0.000
2169 2167 2170 2171 3 0.628 1.883 0.000 -2.510 -0.000 0.000
2169 2167 2170 2172 3 0.628 1.883 0.000 -2.510 -0.000 0.000
2169 2167 2170 2173 3 0.628 1.883 0.000 -2.510 -0.000 0.000
2171 2170 2173 2174 3 0.628 1.883 0.000 -2.510 -0.000 0.000
2171 2170 2173 2175 3 0.628 1.883 0.000 -2.510 -0.000 0.000
2171 2170 2173 2176 3 0.628 1.883 0.000 -2.510 -0.000 0.000
2172 2170 2173 2174 3 0.628 1.883 0.000 -2.510 -0.000 0.000
2172 2170 2173 2175 3 0.628 1.883 0.000 -2.510 -0.000 0.000
2172 2170 2173 2176 3 0.628 1.883 0.000 -2.510 -0.000 0.000
2177 2178 2181 2182 3 -0.778 -2.335 0.000 3.113 -0.000 0.000
2177 2178 2181 2185 3 -0.778 -2.335 0.000 3.113 -0.000 0.000
2178 2181 2182 2183 3 58.576 0.000 -58.576 -0.000 -0.000 0.000
2178 2181 2182 2184 3 58.576 0.000 -58.576 -0.000 -0.000 0.000
2178 2181 2182 2217 3 2.928800 -1.464400 0.209200 -1.673600 0.000000 0.000000
2178 2181 2185 2186 3 1.789 -5.052 -0.962 4.226 -0.000 0.000
2178 2181 2185 2187 3 1.789 -5.052 -0.962 4.226 -0.000 0.000
2179 2178 2181 2182 3 -0.778 -2.335 0.000 3.113 -0.000 0.000
2179 2178 2181 2185 3 -0.778 -2.335 0.000 3.113 -0.000 0.000
2180 2178 2181 2182 3 -0.778 -2.335 0.000 3.113 -0.000 0.000
2180 2178 2181 2185 3 -0.778 -2.335 0.000 3.113 -0.000 0.000
2182 2178 2181 2185 4 180.000 10.460 2
2181 2182 2217 2214 3 2.928800 -1.464400 0.209200 -1.673600 0.000000 0.000000
2181 2182 2217 2218 3 2.928800 -1.464400 0.209200 -1.673600 0.000000 0.000000
2181 2182 2217 2221 3 2.928800 -1.464400 0.209200 -1.673600 0.000000 0.000000
2181 2185 2187 2188 3 31.206 -9.768 -21.439 -0.000 -0.000 0.000
2182 2181 2185 2186 3 30.334 -5.230 -25.104 -0.000 -0.000 0.000
2182 2181 2185 2187 3 -5.858 -6.694 12.552 -0.000 -0.000 0.000
2183 2181 2182 2184 4 180.000 10.460 2
2185 2181 2182 2183 3 58.576 0.000 -58.576 -0.000 -0.000 0.000
2185 2181 2182 2184 3 58.576 0.000 -58.576 -0.000 -0.000 0.000
2185 2181 2182 2217 3 2.928800 -1.464400 0.209200 -1.673600 0.000000 0.000000
2186 2181 2185 2187 4 180.000 43.932 2
2182 2217 2218 2219 3 0.627600 1.882800 0.000000 -2.510400 0.000000 0.000000
2182 2217 2218 2220 3 0.627600 1.882800 0.000000 -2.510400 0.000000 0.000000
2182 2217 2218 2253 3 2.928800 -1.464400 0.209200 -1.673600 0.000000 0.000000
2182 2217 2221 2222 3 2.874410 0.581580 2.092000 -5.547990 0.000000 0.000000
2182 2217 2221 2223 3 2.874410 0.581580 2.092000 -5.547990 0.000000 0.000000
2183 2182 2217 2214 3 0.627600 1.882800 0.000000 -2.510400 0.000000 0.000000
2183 2182 2217 2218 3 0.627600 1.882800 0.000000 -2.510400 0.000000 0.000000
2183 2182 2217 2221 3 0.627600 1.882800 0.000000 -2.510400 0.000000 0.000000
2184 2182 2217 2214 3 0.627600 1.882800 0.000000 -2.510400 0.000000 0.000000
2184 2182 2217 2218 3 0.627600 1.882800 0.000000 -2.510400 0.000000 0.000000
2184 2182 2217 2221 3 0.627600 1.882800 0.000000 -2.510400 0.000000 0.000000
2213 2214 2217 2182 3 0.627600 1.882800 0.000000 -2.510400 0.000000 0.000000
2215 2214 2217 2182 3 0.627600 1.882800 0.000000 -2.510400 0.000000 0.000000
2216 2214 2217 2182 3 0.627600 1.882800 0.000000 -2.510400 0.000000 0.000000
2185 2187 2188 2189 3 0.414 1.243 0.000 -1.657 -0.000 0.000
2185 2187 2188 2190 3 0.414 1.243 0.000 -1.657 -0.000 0.000
2185 2187 2188 2191 3 -2.197 5.201 0.527 -3.531 -0.000 0.000
2186 2185 2187 2188 3 21.439 0.000 -21.439 -0.000 -0.000 0.000
2187 2188 2191 2192 3 0.979 2.937 0.000 -3.916 -0.000 0.000
2187 2188 2191 2193 3 2.874 0.582 2.092 -5.548 -0.000 0.000
2187 2188 2191 2200 3 2.874 0.582 2.092 -5.548 -0.000 0.000
2188 2191 2193 2194 3 0.628 1.883 0.000 -2.510 -0.000 0.000
2188 2191 2193 2195 3 0.628 1.883 0.000 -2.510 -0.000 0.000
2188 2191 2193 2196 3 2.301 -1.464 0.837 -1.674 -0.000 0.000
2188 2191 2200 2201 3 0.628 1.883 0.000 -2.510 -0.000 0.000
2188 2191 2200 2202 3 0.628 1.883 0.000 -2.510 -0.000 0.000
2188 2191 2200 2203 3 2.301 -1.464 0.837 -1.674 -0.000 0.000
2189 2188 2191 2192 3 0.628 1.883 0.000 -2.510 -0.000 0.000
2189 2188 2191 2193 3 0.628 1.883 0.000 -2.510 -0.000 0.000
2189 2188 2191 2200 3 0.628 1.883 0.000 -2.510 -0.000 0.000
2190 2188 2191 2192 3 0.628 1.883 0.000 -2.510 -0.000 0.000
2190 2188 2191 2193 3 0.628 1.883 0.000 -2.510 -0.000 0.000
2190 2188 2191 2200 3 0.628 1.883 0.000 -2.510 -0.000 0.000
2191 2193 2196 2197 3 0.628 1.883 0.000 -2.510 -0.000 0.000
2191 2193 2196 2198 3 0.628 1.883 0.000 -2.510 -0.000 0.000
2191 2193 2196 2199 3 0.628 1.883 0.000 -2.510 -0.000 0.000
2191 2200 2203 2204 3 0.628 1.883 0.000 -2.510 -0.000 0.000
2191 2200 2203 2205 3 0.628 1.883 0.000 -2.510 -0.000 0.000
2191 2200 2203 2206 3 2.301 -1.464 0.837 -1.674 -0.000 0.000
2192 2191 2193 2194 3 0.628 1.883 0.000 -2.510 -0.000 0.000
2192 2191 2193 2195 3 0.628 1.883 0.000 -2.510 -0.000 0.000
2192 2191 2193 2196 3 0.628 1.883 0.000 -2.510 -0.000 0.000
2192 2191 2200 2201 3 0.628 1.883 0.000 -2.510 -0.000 0.000
2192 2191 2200 2202 3 0.628 1.883 0.000 -2.510 -0.000 0.000
2192 2191 2200 2203 3 0.628 1.883 0.000 -2.510 -0.000 0.000
2193 2191 2200 2201 3 0.628 1.883 0.000 -2.510 -0.000 0.000
2193 2191 2200 2202 3 0.628 1.883 0.000 -2.510 -0.000 0.000
2193 2191 2200 2203 3 2.301 -1.464 0.837 -1.674 -0.000 0.000
2200 2191 2193 2194 3 0.628 1.883 0.000 -2.510 -0.000 0.000
2200 2191 2193 2195 3 0.628 1.883 0.000 -2.510 -0.000 0.000
2200 2191 2193 2196 3 2.301 -1.464 0.837 -1.674 -0.000 0.000
2194 2193 2196 2197 3 0.628 1.883 0.000 -2.510 -0.000 0.000
2194 2193 2196 2198 3 0.628 1.883 0.000 -2.510 -0.000 0.000
2194 2193 2196 2199 3 0.628 1.883 0.000 -2.510 -0.000 0.000
2195 2193 2196 2197 3 0.628 1.883 0.000 -2.510 -0.000 0.000
2195 2193 2196 2198 3 0.628 1.883 0.000 -2.510 -0.000 0.000
2195 2193 2196 2199 3 0.628 1.883 0.000 -2.510 -0.000 0.000
2200 2203 2206 2207 3 0.628 1.883 0.000 -2.510 -0.000 0.000
2200 2203 2206 2208 3 0.628 1.883 0.000 -2.510 -0.000 0.000
2200 2203 2206 2209 3 2.301 -1.464 0.837 -1.674 -0.000 0.000
2201 2200 2203 2204 3 0.628 1.883 0.000 -2.510 -0.000 0.000
2201 2200 2203 2205 3 0.628 1.883 0.000 -2.510 -0.000 0.000
2201 2200 2203 2206 3 0.628 1.883 0.000 -2.510 -0.000 0.000
2202 2200 2203 2204 3 0.628 1.883 0.000 -2.510 -0.000 0.000
2202 2200 2203 2205 3 0.628 1.883 0.000 -2.510 -0.000 0.000
2202 2200 2203 2206 3 0.628 1.883 0.000 -2.510 -0.000 0.000
2203 2206 2209 2210 3 0.628 1.883 0.000 -2.510 -0.000 0.000
2203 2206 2209 2211 3 0.628 1.883 0.000 -2.510 -0.000 0.000
2203 2206 2209 2212 3 0.628 1.883 0.000 -2.510 -0.000 0.000
2204 2203 2206 2207 3 0.628 1.883 0.000 -2.510 -0.000 0.000
2204 2203 2206 2208 3 0.628 1.883 0.000 -2.510 -0.000 0.000
2204 2203 2206 2209 3 0.628 1.883 0.000 -2.510 -0.000 0.000
2205 2203 2206 2207 3 0.628 1.883 0.000 -2.510 -0.000 0.000
2205 2203 2206 2208 3 0.628 1.883 0.000 -2.510 -0.000 0.000
2205 2203 2206 2209 3 0.628 1.883 0.000 -2.510 -0.000 0.000
2207 2206 2209 2210 3 0.628 1.883 0.000 -2.510 -0.000 0.000
2207 2206 2209 2211 3 0.628 1.883 0.000 -2.510 -0.000 0.000
2207 2206 2209 2212 3 0.628 1.883 0.000 -2.510 -0.000 0.000
2208 2206 2209 2210 3 0.628 1.883 0.000 -2.510 -0.000 0.000
2208 2206 2209 2211 3 0.628 1.883 0.000 -2.510 -0.000 0.000
2208 2206 2209 2212 3 0.628 1.883 0.000 -2.510 -0.000 0.000
2213 2214 2217 2218 3 -0.778 -2.335 0.000 3.113 -0.000 0.000
2213 2214 2217 2221 3 -0.778 -2.335 0.000 3.113 -0.000 0.000
2214 2217 2218 2219 3 58.576 0.000 -58.576 -0.000 -0.000 0.000
2214 2217 2218 2220 3 58.576 0.000 -58.576 -0.000 -0.000 0.000
2214 2217 2218 2253 3 2.928800 -1.464400 0.209200 -1.673600 0.000000 0.000000
2214 2217 2221 2222 3 1.789 -5.052 -0.962 4.226 -0.000 0.000
2214 2217 2221 2223 3 1.789 -5.052 -0.962 4.226 -0.000 0.000
2215 2214 2217 2218 3 -0.778 -2.335 0.000 3.113 -0.000 0.000
2215 2214 2217 2221 3 -0.778 -2.335 0.000 3.113 -0.000 0.000
2216 2214 2217 2218 3 -0.778 -2.335 0.000 3.113 -0.000 0.000
2216 2214 2217 2221 3 -0.778 -2.335 0.000 3.113 -0.000 0.000
2218 2214 2217 2221 4 180.000 10.460 2
2217 2218 2253 2250 3 2.928800 -1.464400 0.209200 -1.673600 0.000000 0.000000
2217 2218 2253 2254 3 2.928800 -1.464400 0.209200 -1.673600 0.000000 0.000000
2217 2218 2253 2257 3 2.928800 -1.464400 0.209200 -1.673600 0.000000 0.000000
2217 2221 2223 2224 3 31.206 -9.768 -21.439 -0.000 -0.000 0.000
2218 2217 2221 2222 3 30.334 -5.230 -25.104 -0.000 -0.000 0.000
2218 2217 2221 2223 3 -5.858 -6.694 12.552 -0.000 -0.000 0.000
2219 2217 2218 2220 4 180.000 10.460 2
2221 2217 2218 2219 3 58.576 0.000 -58.576 -0.000 -0.000 0.000
2221 2217 2218 2220 3 58.576 0.000 -58.576 -0.000 -0.000 0.000
2221 2217 2218 2253 3 2.928800 -1.464400 0.209200 -1.673600 0.000000 0.000000
2222 2217 2221 2223 4 180.000 43.932 2
2218 2253 2254 2255 3 0.627600 1.882800 0.000000 -2.510400 0.000000 0.000000
2218 2253 2254 2256 3 0.627600 1.882800 0.000000 -2.510400 0.000000 0.000000
2218 2253 2254 2289 3 2.928800 -1.464400 0.209200 -1.673600 0.000000 0.000000
2218 2253 2257 2258 3 2.874410 0.581580 2.092000 -5.547990 0.000000 0.000000
2218 2253 2257 2259 3 2.874410 0.581580 2.092000 -5.547990 0.000000 0.000000
2219 2218 2253 2250 3 0.627600 1.882800 0.000000 -2.510400 0.000000 0.000000
2219 2218 2253 2254 3 0.627600 1.882800 0.000000 -2.510400 0.000000 0.000000
2219 2218 2253 2257 3 0.627600 1.882800 0.000000 -2.510400 0.000000 0.000000
2220 2218 2253 2250 3 0.627600 1.882800 0.000000 -2.510400 0.000000 0.000000
2220 2218 2253 2254 3 0.627600 1.882800 0.000000 -2.510400 0.000000 0.000000
2220 2218 2253 2257 3 0.627600 1.882800 0.000000 -2.510400 0.000000 0.000000
2249 2250 2253 2218 3 0.627600 1.882800 0.000000 -2.510400 0.000000 0.000000
2251 2250 2253 2218 3 0.627600 1.882800 0.000000 -2.510400 0.000000 0.000000
2252 2250 2253 2218 3 0.627600 1.882800 0.000000 -2.510400 0.000000 0.000000
2221 2223 2224 2225 3 0.414 1.243 0.000 -1.657 -0.000 0.000
2221 2223 2224 2226 3 0.414 1.243 0.000 -1.657 -0.000 0.000
2221 2223 2224 2227 3 -2.197 5.201 0.527 -3.531 -0.000 0.000
2222 2221 2223 2224 3 21.439 0.000 -21.439 -0.000 -0.000 0.000
2223 2224 2227 2228 3 0.979 2.937 0.000 -3.916 -0.000 0.000
2223 2224 2227 2229 3 2.874 0.582 2.092 -5.548 -0.000 0.000
2223 2224 2227 2236 3 2.874 0.582 2.092 -5.548 -0.000 0.000
2224 2227 2229 2230 3 0.628 1.883 0.000 -2.510 -0.000 0.000
2224 2227 2229 2231 3 0.628 1.883 0.000 -2.510 -0.000 0.000
2224 2227 2229 2232 3 2.301 -1.464 0.837 -1.674 -0.000 0.000
2224 2227 2236 2237 3 0.628 1.883 0.000 -2.510 -0.000 0.000
2224 2227 2236 2238 3 0.628 1.883 0.000 -2.510 -0.000 0.000
2224 2227 2236 2239 3 2.301 -1.464 0.837 -1.674 -0.000 0.000
2225 2224 2227 2228 3 0.628 1.883 0.000 -2.510 -0.000 0.000
2225 2224 2227 2229 3 0.628 1.883 0.000 -2.510 -0.000 0.000
2225 2224 2227 2236 3 0.628 1.883 0.000 -2.510 -0.000 0.000
2226 2224 2227 2228 3 0.628 1.883 0.000 -2.510 -0.000 0.000
2226 2224 2227 2229 3 0.628 1.883 0.000 -2.510 -0.000 0.000
2226 2224 2227 2236 3 0.628 1.883 0.000 -2.510 -0.000 0.000
2227 2229 2232 2233 3 0.628 1.883 0.000 -2.510 -0.000 0.000
2227 2229 2232 2234 3 0.628 1.883 0.000 -2.510 -0.000 0.000
2227 2229 2232 2235 3 0.628 1.883 0.000 -2.510 -0.000 0.000
2227 2236 2239 2240 3 0.628 1.883 0.000 -2.510 -0.000 0.000
2227 2236 2239 2241 3 0.628 1.883 0.000 -2.510 -0.000 0.000
2227 2236 2239 2242 3 2.301 -1.464 0.837 -1.674 -0.000 0.000
2228 2227 2229 2230 3 0.628 1.883 0.000 -2.510 -0.000 0.000
2228 2227 2229 2231 3 0.628 1.883 0.000 -2.510 -0.000 0.000
2228 2227 2229 2232 3 0.628 1.883 0.000 -2.510 -0.000 0.000
2228 2227 2236 2237 3 0.628 1.883 0.000 -2.510 -0.000 0.000
2228 2227 2236 2238 3 0.628 1.883 0.000 -2.510 -0.000 0.000
2228 2227 2236 2239 3 0.628 1.883 0.000 -2.510 -0.000 0.000
2229 2227 2236 2237 3 0.628 1.883 0.000 -2.510 -0.000 0.000
2229 2227 2236 2238 3 0.628 1.883 0.000 -2.510 -0.000 0.000
2229 2227 2236 2239 3 2.301 -1.464 0.837 -1.674 -0.000 0.000
2236 2227 2229 2230 3 0.628 1.883 0.000 -2.510 -0.000 0.000
2236 2227 2229 2231 3 0.628 1.883 0.000 -2.510 -0.000 0.000
2236 2227 2229 2232 3 2.301 -1.464 0.837 -1.674 -0.000 0.000
2230 2229 2232 2233 3 0.628 1.883 0.000 -2.510 -0.000 0.000
2230 2229 2232 2234 3 0.628 1.883 0.000 -2.510 -0.000 0.000
2230 2229 2232 2235 3 0.628 1.883 0.000 -2.510 -0.000 0.000
2231 2229 2232 2233 3 0.628 1.883 0.000 -2.510 -0.000 0.000
2231 2229 2232 2234 3 0.628 1.883 0.000 -2.510 -0.000 0.000
2231 2229 2232 2235 3 0.628 1.883 0.000 -2.510 -0.000 0.000
2236 2239 2242 2243 3 0.628 1.883 0.000 -2.510 -0.000 0.000
2236 2239 2242 2244 3 0.628 1.883 0.000 -2.510 -0.000 0.000
2236 2239 2242 2245 3 2.301 -1.464 0.837 -1.674 -0.000 0.000
2237 2236 2239 2240 3 0.628 1.883 0.000 -2.510 -0.000 0.000
2237 2236 2239 2241 3 0.628 1.883 0.000 -2.510 -0.000 0.000
2237 2236 2239 2242 3 0.628 1.883 0.000 -2.510 -0.000 0.000
2238 2236 2239 2240 3 0.628 1.883 0.000 -2.510 -0.000 0.000
2238 2236 2239 2241 3 0.628 1.883 0.000 -2.510 -0.000 0.000
2238 2236 2239 2242 3 0.628 1.883 0.000 -2.510 -0.000 0.000
2239 2242 2245 2246 3 0.628 1.883 0.000 -2.510 -0.000 0.000
2239 2242 2245 2247 3 0.628 1.883 0.000 -2.510 -0.000 0.000
2239 2242 2245 2248 3 0.628 1.883 0.000 -2.510 -0.000 0.000
2240 2239 2242 2243 3 0.628 1.883 0.000 -2.510 -0.000 0.000
2240 2239 2242 2244 3 0.628 1.883 0.000 -2.510 -0.000 0.000
2240 2239 2242 2245 3 0.628 1.883 0.000 -2.510 -0.000 0.000
2241 2239 2242 2243 3 0.628 1.883 0.000 -2.510 -0.000 0.000
2241 2239 2242 2244 3 0.628 1.883 0.000 -2.510 -0.000 0.000
2241 2239 2242 2245 3 0.628 1.883 0.000 -2.510 -0.000 0.000
2243 2242 2245 2246 3 0.628 1.883 0.000 -2.510 -0.000 0.000
2243 2242 2245 2247 3 0.628 1.883 0.000 -2.510 -0.000 0.000
2243 2242 2245 2248 3 0.628 1.883 0.000 -2.510 -0.000 0.000
2244 2242 2245 2246 3 0.628 1.883 0.000 -2.510 -0.000 0.000
2244 2242 2245 2247 3 0.628 1.883 0.000 -2.510 -0.000 0.000
2244 2242 2245 2248 3 0.628 1.883 0.000 -2.510 -0.000 0.000
2249 2250 2253 2254 3 -0.778 -2.335 0.000 3.113 -0.000 0.000
2249 2250 2253 2257 3 -0.778 -2.335 0.000 3.113 -0.000 0.000
2250 2253 2254 2255 3 58.576 0.000 -58.576 -0.000 -0.000 0.000
2250 2253 2254 2256 3 58.576 0.000 -58.576 -0.000 -0.000 0.000
2250 2253 2254 2289 3 2.928800 -1.464400 0.209200 -1.673600 0.000000 0.000000
2250 2253 2257 2258 3 1.789 -5.052 -0.962 4.226 -0.000 0.000
2250 2253 2257 2259 3 1.789 -5.052 -0.962 4.226 -0.000 0.000
2251 2250 2253 2254 3 -0.778 -2.335 0.000 3.113 -0.000 0.000
2251 2250 2253 2257 3 -0.778 -2.335 0.000 3.113 -0.000 0.000
2252 2250 2253 2254 3 -0.778 -2.335 0.000 3.113 -0.000 0.000
2252 2250 2253 2257 3 -0.778 -2.335 0.000 3.113 -0.000 0.000
2254 2250 2253 2257 4 180.000 10.460 2
2253 2254 2289 2286 3 2.928800 -1.464400 0.209200 -1.673600 0.000000 0.000000
2253 2254 2289 2290 3 2.928800 -1.464400 0.209200 -1.673600 0.000000 0.000000
2253 2254 2289 2293 3 2.928800 -1.464400 0.209200 -1.673600 0.000000 0.000000
2253 2257 2259 2260 3 31.206 -9.768 -21.439 -0.000 -0.000 0.000
2254 2253 2257 2258 3 30.334 -5.230 -25.104 -0.000 -0.000 0.000
2254 2253 2257 2259 3 -5.858 -6.694 12.552 -0.000 -0.000 0.000
2255 2253 2254 2256 4 180.000 10.460 2
2257 2253 2254 2255 3 58.576 0.000 -58.576 -0.000 -0.000 0.000
2257 2253 2254 2256 3 58.576 0.000 -58.576 -0.000 -0.000 0.000
2257 2253 2254 2289 3 2.928800 -1.464400 0.209200 -1.673600 0.000000 0.000000
2258 2253 2257 2259 4 180.000 43.932 2
2254 2289 2290 2291 3 0.627600 1.882800 0.000000 -2.510400 0.000000 0.000000
2254 2289 2290 2292 3 0.627600 1.882800 0.000000 -2.510400 0.000000 0.000000
2254 2289 2290 2337 3 2.928800 -1.464400 0.209200 -1.673600 0.000000 0.000000
2254 2289 2293 2294 3 2.874410 0.581580 2.092000 -5.547990 0.000000 0.000000
2254 2289 2293 2295 3 2.874410 0.581580 2.092000 -5.547990 0.000000 0.000000
2255 2254 2289 2286 3 0.627600 1.882800 0.000000 -2.510400 0.000000 0.000000
2255 2254 2289 2290 3 0.627600 1.882800 0.000000 -2.510400 0.000000 0.000000
2255 2254 2289 2293 3 0.627600 1.882800 0.000000 -2.510400 0.000000 0.000000
2256 2254 2289 2286 3 0.627600 1.882800 0.000000 -2.510400 0.000000 0.000000
2256 2254 2289 2290 3 0.627600 1.882800 0.000000 -2.510400 0.000000 0.000000
2256 2254 2289 2293 3 0.627600 1.882800 0.000000 -2.510400 0.000000 0.000000
2285 2286 2289 2254 3 0.627600 1.882800 0.000000 -2.510400 0.000000 0.000000
2287 2286 2289 2254 3 0.627600 1.882800 0.000000 -2.510400 0.000000 0.000000
2288 2286 2289 2254 3 0.627600 1.882800 0.000000 -2.510400 0.000000 0.000000
2257 2259 2260 2261 3 0.414 1.243 0.000 -1.657 -0.000 0.000
2257 2259 2260 2262 3 0.414 1.243 0.000 -1.657 -0.000 0.000
2257 2259 2260 2263 3 -2.197 5.201 0.527 -3.531 -0.000 0.000
2258 2257 2259 2260 3 21.439 0.000 -21.439 -0.000 -0.000 0.000
2259 2260 2263 2264 3 0.979 2.937 0.000 -3.916 -0.000 0.000
2259 2260 2263 2265 3 2.874 0.582 2.092 -5.548 -0.000 0.000
2259 2260 2263 2272 3 2.874 0.582 2.092 -5.548 -0.000 0.000
2260 2263 2265 2266 3 0.628 1.883 0.000 -2.510 -0.000 0.000
2260 2263 2265 2267 3 0.628 1.883 0.000 -2.510 -0.000 0.000
2260 2263 2265 2268 3 2.301 -1.464 0.837 -1.674 -0.000 0.000
2260 2263 2272 2273 3 0.628 1.883 0.000 -2.510 -0.000 0.000
2260 2263 2272 2274 3 0.628 1.883 0.000 -2.510 -0.000 0.000
2260 2263 2272 2275 3 2.301 -1.464 0.837 -1.674 -0.000 0.000
2261 2260 2263 2264 3 0.628 1.883 0.000 -2.510 -0.000 0.000
2261 2260 2263 2265 3 0.628 1.883 0.000 -2.510 -0.000 0.000
2261 2260 2263 2272 3 0.628 1.883 0.000 -2.510 -0.000 0.000
2262 2260 2263 2264 3 0.628 1.883 0.000 -2.510 -0.000 0.000
2262 2260 2263 2265 3 0.628 1.883 0.000 -2.510 -0.000 0.000
2262 2260 2263 2272 3 0.628 1.883 0.000 -2.510 -0.000 0.000
2263 2265 2268 2269 3 0.628 1.883 0.000 -2.510 -0.000 0.000
2263 2265 2268 2270 3 0.628 1.883 0.000 -2.510 -0.000 0.000
2263 2265 2268 2271 3 0.628 1.883 0.000 -2.510 -0.000 0.000
2263 2272 2275 2276 3 0.628 1.883 0.000 -2.510 -0.000 0.000
2263 2272 2275 2277 3 0.628 1.883 0.000 -2.510 -0.000 0.000
2263 2272 2275 2278 3 2.301 -1.464 0.837 -1.674 -0.000 0.000
2264 2263 2265 2266 3 0.628 1.883 0.000 -2.510 -0.000 0.000
2264 2263 2265 2267 3 0.628 1.883 0.000 -2.510 -0.000 0.000
2264 2263 2265 2268 3 0.628 1.883 0.000 -2.510 -0.000 0.000
2264 2263 2272 2273 3 0.628 1.883 0.000 -2.510 -0.000 0.000
2264 2263 2272 2274 3 0.628 1.883 0.000 -2.510 -0.000 0.000
2264 2263 2272 2275 3 0.628 1.883 0.000 -2.510 -0.000 0.000
2265 2263 2272 2273 3 0.628 1.883 0.000 -2.510 -0.000 0.000
2265 2263 2272 2274 3 0.628 1.883 0.000 -2.510 -0.000 0.000
2265 2263 2272 2275 3 2.301 -1.464 0.837 -1.674 -0.000 0.000
2272 2263 2265 2266 3 0.628 1.883 0.000 -2.510 -0.000 0.000
2272 2263 2265 2267 3 0.628 1.883 0.000 -2.510 -0.000 0.000
2272 2263 2265 2268 3 2.301 -1.464 0.837 -1.674 -0.000 0.000
2266 2265 2268 2269 3 0.628 1.883 0.000 -2.510 -0.000 0.000
2266 2265 2268 2270 3 0.628 1.883 0.000 -2.510 -0.000 0.000
2266 2265 2268 2271 3 0.628 1.883 0.000 -2.510 -0.000 0.000
2267 2265 2268 2269 3 0.628 1.883 0.000 -2.510 -0.000 0.000
2267 2265 2268 2270 3 0.628 1.883 0.000 -2.510 -0.000 0.000
2267 2265 2268 2271 3 0.628 1.883 0.000 -2.510 -0.000 0.000
2272 2275 2278 2279 3 0.628 1.883 0.000 -2.510 -0.000 0.000
2272 2275 2278 2280 3 0.628 1.883 0.000 -2.510 -0.000 0.000
2272 2275 2278 2281 3 2.301 -1.464 0.837 -1.674 -0.000 0.000
2273 2272 2275 2276 3 0.628 1.883 0.000 -2.510 -0.000 0.000
2273 2272 2275 2277 3 0.628 1.883 0.000 -2.510 -0.000 0.000
2273 2272 2275 2278 3 0.628 1.883 0.000 -2.510 -0.000 0.000
2274 2272 2275 2276 3 0.628 1.883 0.000 -2.510 -0.000 0.000
2274 2272 2275 2277 3 0.628 1.883 0.000 -2.510 -0.000 0.000
2274 2272 2275 2278 3 0.628 1.883 0.000 -2.510 -0.000 0.000
2275 2278 2281 2282 3 0.628 1.883 0.000 -2.510 -0.000 0.000
2275 2278 2281 2283 3 0.628 1.883 0.000 -2.510 -0.000 0.000
2275 2278 2281 2284 3 0.628 1.883 0.000 -2.510 -0.000 0.000
2276 2275 2278 2279 3 0.628 1.883 0.000 -2.510 -0.000 0.000
2276 2275 2278 2280 3 0.628 1.883 0.000 -2.510 -0.000 0.000
2276 2275 2278 2281 3 0.628 1.883 0.000 -2.510 -0.000 0.000
2277 2275 2278 2279 3 0.628 1.883 0.000 -2.510 -0.000 0.000
2277 2275 2278 2280 3 0.628 1.883 0.000 -2.510 -0.000 0.000
2277 2275 2278 2281 3 0.628 1.883 0.000 -2.510 -0.000 0.000
2279 2278 2281 2282 3 0.628 1.883 0.000 -2.510 -0.000 0.000
2279 2278 2281 2283 3 0.628 1.883 0.000 -2.510 -0.000 0.000
2279 2278 2281 2284 3 0.628 1.883 0.000 -2.510 -0.000 0.000
2280 2278 2281 2282 3 0.628 1.883 0.000 -2.510 -0.000 0.000
2280 2278 2281 2283 3 0.628 1.883 0.000 -2.510 -0.000 0.000
2280 2278 2281 2284 3 0.628 1.883 0.000 -2.510 -0.000 0.000
2285 2286 2289 2290 3 -0.778 -2.335 0.000 3.113 -0.000 0.000
2285 2286 2289 2293 3 -0.778 -2.335 0.000 3.113 -0.000 0.000
2286 2289 2290 2291 3 58.576 0.000 -58.576 -0.000 -0.000 0.000
2286 2289 2290 2292 3 58.576 0.000 -58.576 -0.000 -0.000 0.000
2286 2289 2290 2337 3 2.928800 -1.464400 0.209200 -1.673600 0.000000 0.000000
2286 2289 2293 2294 3 1.789 -5.052 -0.962 4.226 -0.000 0.000
2286 2289 2293 2295 3 1.789 -5.052 -0.962 4.226 -0.000 0.000
2287 2286 2289 2290 3 -0.778 -2.335 0.000 3.113 -0.000 0.000
2287 2286 2289 2293 3 -0.778 -2.335 0.000 3.113 -0.000 0.000
2288 2286 2289 2290 3 -0.778 -2.335 0.000 3.113 -0.000 0.000
2288 2286 2289 2293 3 -0.778 -2.335 0.000 3.113 -0.000 0.000
2290 2286 2289 2293 4 180.000 10.460 2
2289 2290 2337 2334 3 2.928800 -1.464400 0.209200 -1.673600 0.000000 0.000000
2289 2290 2337 2338 3 2.928800 -1.464400 0.209200 -1.673600 0.000000 0.000000
2289 2290 2337 2341 3 2.928800 -1.464400 0.209200 -1.673600 0.000000 0.000000
2289 2293 2295 2296 3 31.206 -9.768 -21.439 -0.000 -0.000 0.000
2290 2289 2293 2294 3 30.334 -5.230 -25.104 -0.000 -0.000 0.000
2290 2289 2293 2295 3 -5.858 -6.694 12.552 -0.000 -0.000 0.000
2291 2289 2290 2292 4 180.000 10.460 2
2293 2289 2290 2291 3 58.576 0.000 -58.576 -0.000 -0.000 0.000
2293 2289 2290 2292 3 58.576 0.000 -58.576 -0.000 -0.000 0.000
2293 2289 2290 2337 3 2.928800 -1.464400 0.209200 -1.673600 0.000000 0.000000
2294 2289 2293 2295 4 180.000 43.932 2
2290 2337 2338 2339 3 0.627600 1.882800 0.000000 -2.510400 0.000000 0.000000
2290 2337 2338 2340 3 0.627600 1.882800 0.000000 -2.510400 0.000000 0.000000
2290 2337 2338 2373 3 2.928800 -1.464400 0.209200 -1.673600 0.000000 0.000000
2290 2337 2341 2342 3 2.874410 0.581580 2.092000 -5.547990 0.000000 0.000000
2290 2337 2341 2343 3 2.874410 0.581580 2.092000 -5.547990 0.000000 0.000000
2291 2290 2337 2334 3 0.627600 1.882800 0.000000 -2.510400 0.000000 0.000000
2291 2290 2337 2338 3 0.627600 1.882800 0.000000 -2.510400 0.000000 0.000000
2291 2290 2337 2341 3 0.627600 1.882800 0.000000 -2.510400 0.000000 0.000000
2292 2290 2337 2334 3 0.627600 1.882800 0.000000 -2.510400 0.000000 0.000000
2292 2290 2337 2338 3 0.627600 1.882800 0.000000 -2.510400 0.000000 0.000000
2292 2290 2337 2341 3 0.627600 1.882800 0.000000 -2.510400 0.000000 0.000000
2333 2334 2337 2290 3 0.627600 1.882800 0.000000 -2.510400 0.000000 0.000000
2335 2334 2337 2290 3 0.627600 1.882800 0.000000 -2.510400 0.000000 0.000000
2336 2334 2337 2290 3 0.627600 1.882800 0.000000 -2.510400 0.000000 0.000000
2293 2295 2296 2297 3 0.414 1.243 0.000 -1.657 -0.000 0.000
2293 2295 2296 2298 3 0.414 1.243 0.000 -1.657 -0.000 0.000
2293 2295 2296 2299 3 -2.197 5.201 0.527 -3.531 -0.000 0.000
2294 2293 2295 2296 3 21.439 0.000 -21.439 -0.000 -0.000 0.000
2295 2296 2299 2300 3 0.979 2.937 0.000 -3.916 -0.000 0.000
2295 2296 2299 2301 3 0.979 2.937 0.000 -3.916 -0.000 0.000
2295 2296 2299 2302 3 2.874 0.582 2.092 -5.548 -0.000 0.000
2296 2299 2302 2303 3 0.628 1.883 0.000 -2.510 -0.000 0.000
2296 2299 2302 2304 3 0.628 1.883 0.000 -2.510 -0.000 0.000
2296 2299 2302 2305 3 2.301 -1.464 0.837 -1.674 -0.000 0.000
2297 2296 2299 2300 3 0.628 1.883 0.000 -2.510 -0.000 0.000
2297 2296 2299 2301 3 0.628 1.883 0.000 -2.510 -0.000 0.000
2297 2296 2299 2302 3 0.628 1.883 0.000 -2.510 -0.000 0.000
2298 2296 2299 2300 3 0.628 1.883 0.000 -2.510 -0.000 0.000
2298 2296 2299 2301 3 0.628 1.883 0.000 -2.510 -0.000 0.000
2298 2296 2299 2302 3 0.628 1.883 0.000 -2.510 -0.000 0.000
2299 2302 2305 2306 3 0.628 1.883 0.000 -2.510 -0.000 0.000
2299 2302 2305 2307 3 0.628 1.883 0.000 -2.510 -0.000 0.000
2299 2302 2305 2308 3 2.301 -1.464 0.837 -1.674 -0.000 0.000
2300 2299 2302 2303 3 0.628 1.883 0.000 -2.510 -0.000 0.000
2300 2299 2302 2304 3 0.628 1.883 0.000 -2.510 -0.000 0.000
2300 2299 2302 2305 3 0.628 1.883 0.000 -2.510 -0.000 0.000
2301 2299 2302 2303 3 0.628 1.883 0.000 -2.510 -0.000 0.000
2301 2299 2302 2304 3 0.628 1.883 0.000 -2.510 -0.000 0.000
2301 2299 2302 2305 3 0.628 1.883 0.000 -2.510 -0.000 0.000
2302 2305 2308 2309 3 0.628 1.883 0.000 -2.510 -0.000 0.000
2302 2305 2308 2310 3 0.628 1.883 0.000 -2.510 -0.000 0.000
2302 2305 2308 2311 3 2.301 -1.464 0.837 -1.674 -0.000 0.000
2303 2302 2305 2306 3 0.628 1.883 0.000 -2.510 -0.000 0.000
2303 2302 2305 2307 3 0.628 1.883 0.000 -2.510 -0.000 0.000
2303 2302 2305 2308 3 0.628 1.883 0.000 -2.510 -0.000 0.000
2304 2302 2305 2306 3 0.628 1.883 0.000 -2.510 -0.000 0.000
2304 2302 2305 2307 3 0.628 1.883 0.000 -2.510 -0.000 0.000
2304 2302 2305 2308 3 0.628 1.883 0.000 -2.510 -0.000 0.000
2305 2308 2311 2312 3 0.628 1.883 0.000 -2.510 -0.000 0.000
2305 2308 2311 2313 3 0.628 1.883 0.000 -2.510 -0.000 0.000
2305 2308 2311 2314 3 2.301 -1.464 0.837 -1.674 -0.000 0.000
2306 2305 2308 2309 3 0.628 1.883 0.000 -2.510 -0.000 0.000
2306 2305 2308 2310 3 0.628 1.883 0.000 -2.510 -0.000 0.000
2306 2305 2308 2311 3 0.628 1.883 0.000 -2.510 -0.000 0.000
2307 2305 2308 2309 3 0.628 1.883 0.000 -2.510 -0.000 0.000
2307 2305 2308 2310 3 0.628 1.883 0.000 -2.510 -0.000 0.000
2307 2305 2308 2311 3 0.628 1.883 0.000 -2.510 -0.000 0.000
2308 2311 2314 2315 3 0.628 1.883 0.000 -2.510 -0.000 0.000
2308 2311 2314 2316 3 0.628 1.883 0.000 -2.510 -0.000 0.000
2308 2311 2314 2317 3 2.301 -1.464 0.837 -1.674 -0.000 0.000
2309 2308 2311 2312 3 0.628 1.883 0.000 -2.510 -0.000 0.000
2309 2308 2311 2313 3 0.628 1.883 0.000 -2.510 -0.000 0.000
2309 2308 2311 2314 3 0.628 1.883 0.000 -2.510 -0.000 0.000
2310 2308 2311 2312 3 0.628 1.883 0.000 -2.510 -0.000 0.000
2310 2308 2311 2313 3 0.628 1.883 0.000 -2.510 -0.000 0.000
2310 2308 2311 2314 3 0.628 1.883 0.000 -2.510 -0.000 0.000
2311 2314 2317 2318 3 0.628 1.883 0.000 -2.510 -0.000 0.000
2311 2314 2317 2319 3 0.628 1.883 0.000 -2.510 -0.000 0.000
2311 2314 2317 2320 3 2.301 -1.464 0.837 -1.674 -0.000 0.000
2312 2311 2314 2315 3 0.628 1.883 0.000 -2.510 -0.000 0.000
2312 2311 2314 2316 3 0.628 1.883 0.000 -2.510 -0.000 0.000
2312 2311 2314 2317 3 0.628 1.883 0.000 -2.510 -0.000 0.000
2313 2311 2314 2315 3 0.628 1.883 0.000 -2.510 -0.000 0.000
2313 2311 2314 2316 3 0.628 1.883 0.000 -2.510 -0.000 0.000
2313 2311 2314 2317 3 0.628 1.883 0.000 -2.510 -0.000 0.000
2314 2317 2320 2321 3 0.628 1.883 0.000 -2.510 -0.000 0.000
2314 2317 2320 2322 3 0.628 1.883 0.000 -2.510 -0.000 0.000
2314 2317 2320 2323 3 2.301 -1.464 0.837 -1.674 -0.000 0.000
2315 2314 2317 2318 3 0.628 1.883 0.000 -2.510 -0.000 0.000
2315 2314 2317 2319 3 0.628 1.883 0.000 -2.510 -0.000 0.000
2315 2314 2317 2320 3 0.628 1.883 0.000 -2.510 -0.000 0.000
2316 2314 2317 2318 3 0.628 1.883 0.000 -2.510 -0.000 0.000
2316 2314 2317 2319 3 0.628 1.883 0.000 -2.510 -0.000 0.000
2316 2314 2317 2320 3 0.628 1.883 0.000 -2.510 -0.000 0.000
2317 2320 2323 2324 3 0.628 1.883 0.000 -2.510 -0.000 0.000
2317 2320 2323 2325 3 0.628 1.883 0.000 -2.510 -0.000 0.000
2317 2320 2323 2326 3 2.301 -1.464 0.837 -1.674 -0.000 0.000
2318 2317 2320 2321 3 0.628 1.883 0.000 -2.510 -0.000 0.000
2318 2317 2320 2322 3 0.628 1.883 0.000 -2.510 -0.000 0.000
2318 2317 2320 2323 3 0.628 1.883 0.000 -2.510 -0.000 0.000
2319 2317 2320 2321 3 0.628 1.883 0.000 -2.510 -0.000 0.000
2319 2317 2320 2322 3 0.628 1.883 0.000 -2.510 -0.000 0.000
2319 2317 2320 2323 3 0.628 1.883 0.000 -2.510 -0.000 0.000
2320 2323 2326 2327 3 0.628 1.883 0.000 -2.510 -0.000 0.000
2320 2323 2326 2328 3 0.628 1.883 0.000 -2.510 -0.000 0.000
2320 2323 2326 2329 3 2.301 -1.464 0.837 -1.674 -0.000 0.000
2321 2320 2323 2324 3 0.628 1.883 0.000 -2.510 -0.000 0.000
2321 2320 2323 2325 3 0.628 1.883 0.000 -2.510 -0.000 0.000
2321 2320 2323 2326 3 0.628 1.883 0.000 -2.510 -0.000 0.000
2322 2320 2323 2324 3 0.628 1.883 0.000 -2.510 -0.000 0.000
2322 2320 2323 2325 3 0.628 1.883 0.000 -2.510 -0.000 0.000
2322 2320 2323 2326 3 0.628 1.883 0.000 -2.510 -0.000 0.000
2323 2326 2329 2330 3 0.628 1.883 0.000 -2.510 -0.000 0.000
2323 2326 2329 2331 3 0.628 1.883 0.000 -2.510 -0.000 0.000
2323 2326 2329 2332 3 0.628 1.883 0.000 -2.510 -0.000 0.000
2324 2323 2326 2327 3 0.628 1.883 0.000 -2.510 -0.000 0.000
2324 2323 2326 2328 3 0.628 1.883 0.000 -2.510 -0.000 0.000
2324 2323 2326 2329 3 0.628 1.883 0.000 -2.510 -0.000 0.000
2325 2323 2326 2327 3 0.628 1.883 0.000 -2.510 -0.000 0.000
2325 2323 2326 2328 3 0.628 1.883 0.000 -2.510 -0.000 0.000
2325 2323 2326 2329 3 0.628 1.883 0.000 -2.510 -0.000 0.000
2327 2326 2329 2330 3 0.628 1.883 0.000 -2.510 -0.000 0.000
2327 2326 2329 2331 3 0.628 1.883 0.000 -2.510 -0.000 0.000
2327 2326 2329 2332 3 0.628 1.883 0.000 -2.510 -0.000 0.000
2328 2326 2329 2330 3 0.628 1.883 0.000 -2.510 -0.000 0.000
2328 2326 2329 2331 3 0.628 1.883 0.000 -2.510 -0.000 0.000
2328 2326 2329 2332 3 0.628 1.883 0.000 -2.510 -0.000 0.000
2333 2334 2337 2338 3 -0.778 -2.335 0.000 3.113 -0.000 0.000
2333 2334 2337 2341 3 -0.778 -2.335 0.000 3.113 -0.000 0.000
2334 2337 2338 2339 3 58.576 0.000 -58.576 -0.000 -0.000 0.000
2334 2337 2338 2340 3 58.576 0.000 -58.576 -0.000 -0.000 0.000
2334 2337 2338 2373 3 2.928800 -1.464400 0.209200 -1.673600 0.000000 0.000000
2334 2337 2341 2342 3 1.789 -5.052 -0.962 4.226 -0.000 0.000
2334 2337 2341 2343 3 1.789 -5.052 -0.962 4.226 -0.000 0.000
2335 2334 2337 2338 3 -0.778 -2.335 0.000 3.113 -0.000 0.000
2335 2334 2337 2341 3 -0.778 -2.335 0.000 3.113 -0.000 0.000
2336 2334 2337 2338 3 -0.778 -2.335 0.000 3.113 -0.000 0.000
2336 2334 2337 2341 3 -0.778 -2.335 0.000 3.113 -0.000 0.000
2338 2334 2337 2341 4 180.000 10.460 2
2337 2338 2373 2370 3 2.928800 -1.464400 0.209200 -1.673600 0.000000 0.000000
2337 2338 2373 2374 3 2.928800 -1.464400 0.209200 -1.673600 0.000000 0.000000
2337 2338 2373 2377 3 2.928800 -1.464400 0.209200 -1.673600 0.000000 0.000000
2337 2341 2343 2344 3 31.206 -9.768 -21.439 -0.000 -0.000 0.000
2338 2337 2341 2342 3 30.334 -5.230 -25.104 -0.000 -0.000 0.000
2338 2337 2341 2343 3 -5.858 -6.694 12.552 -0.000 -0.000 0.000
2339 2337 2338 2340 4 180.000 10.460 2
2341 2337 2338 2339 3 58.576 0.000 -58.576 -0.000 -0.000 0.000
2341 2337 2338 2340 3 58.576 0.000 -58.576 -0.000 -0.000 0.000
2341 2337 2338 2373 3 2.928800 -1.464400 0.209200 -1.673600 0.000000 0.000000
2342 2337 2341 2343 4 180.000 43.932 2
2338 2373 2374 2375 3 0.627600 1.882800 0.000000 -2.510400 0.000000 0.000000
2338 2373 2374 2376 3 0.627600 1.882800 0.000000 -2.510400 0.000000 0.000000
2338 2373 2374 2409 3 2.928800 -1.464400 0.209200 -1.673600 0.000000 0.000000
2338 2373 2377 2378 3 2.874410 0.581580 2.092000 -5.547990 0.000000 0.000000
2338 2373 2377 2379 3 2.874410 0.581580 2.092000 -5.547990 0.000000 0.000000
2339 2338 2373 2370 3 0.627600 1.882800 0.000000 -2.510400 0.000000 0.000000
2339 2338 2373 2374 3 0.627600 1.882800 0.000000 -2.510400 0.000000 0.000000
2339 2338 2373 2377 3 0.627600 1.882800 0.000000 -2.510400 0.000000 0.000000
2340 2338 2373 2370 3 0.627600 1.882800 0.000000 -2.510400 0.000000 0.000000
2340 2338 2373 2374 3 0.627600 1.882800 0.000000 -2.510400 0.000000 0.000000
2340 2338 2373 2377 3 0.627600 1.882800 0.000000 -2.510400 0.000000 0.000000
2369 2370 2373 2338 3 0.627600 1.882800 0.000000 -2.510400 0.000000 0.000000
2371 2370 2373 2338 3 0.627600 1.882800 0.000000 -2.510400 0.000000 0.000000
2372 2370 2373 2338 3 0.627600 1.882800 0.000000 -2.510400 0.000000 0.000000
2341 2343 2344 2345 3 0.414 1.243 0.000 -1.657 -0.000 0.000
2341 2343 2344 2346 3 0.414 1.243 0.000 -1.657 -0.000 0.000
2341 2343 2344 2347 3 -2.197 5.201 0.527 -3.531 -0.000 0.000
2342 2341 2343 2344 3 21.439 0.000 -21.439 -0.000 -0.000 0.000
2343 2344 2347 2348 3 0.979 2.937 0.000 -3.916 -0.000 0.000
2343 2344 2347 2349 3 2.874 0.582 2.092 -5.548 -0.000 0.000
2343 2344 2347 2356 3 2.874 0.582 2.092 -5.548 -0.000 0.000
2344 2347 2349 2350 3 0.628 1.883 0.000 -2.510 -0.000 0.000
2344 2347 2349 2351 3 0.628 1.883 0.000 -2.510 -0.000 0.000
2344 2347 2349 2352 3 2.301 -1.464 0.837 -1.674 -0.000 0.000
2344 2347 2356 2357 3 0.628 1.883 0.000 -2.510 -0.000 0.000
2344 2347 2356 2358 3 0.628 1.883 0.000 -2.510 -0.000 0.000
2344 2347 2356 2359 3 2.301 -1.464 0.837 -1.674 -0.000 0.000
2345 2344 2347 2348 3 0.628 1.883 0.000 -2.510 -0.000 0.000
2345 2344 2347 2349 3 0.628 1.883 0.000 -2.510 -0.000 0.000
2345 2344 2347 2356 3 0.628 1.883 0.000 -2.510 -0.000 0.000
2346 2344 2347 2348 3 0.628 1.883 0.000 -2.510 -0.000 0.000
2346 2344 2347 2349 3 0.628 1.883 0.000 -2.510 -0.000 0.000
2346 2344 2347 2356 3 0.628 1.883 0.000 -2.510 -0.000 0.000
2347 2349 2352 2353 3 0.628 1.883 0.000 -2.510 -0.000 0.000
2347 2349 2352 2354 3 0.628 1.883 0.000 -2.510 -0.000 0.000
2347 2349 2352 2355 3 0.628 1.883 0.000 -2.510 -0.000 0.000
2347 2356 2359 2360 3 0.628 1.883 0.000 -2.510 -0.000 0.000
2347 2356 2359 2361 3 0.628 1.883 0.000 -2.510 -0.000 0.000
2347 2356 2359 2362 3 2.301 -1.464 0.837 -1.674 -0.000 0.000
2348 2347 2349 2350 3 0.628 1.883 0.000 -2.510 -0.000 0.000
2348 2347 2349 2351 3 0.628 1.883 0.000 -2.510 -0.000 0.000
2348 2347 2349 2352 3 0.628 1.883 0.000 -2.510 -0.000 0.000
2348 2347 2356 2357 3 0.628 1.883 0.000 -2.510 -0.000 0.000
2348 2347 2356 2358 3 0.628 1.883 0.000 -2.510 -0.000 0.000
2348 2347 2356 2359 3 0.628 1.883 0.000 -2.510 -0.000 0.000
2349 2347 2356 2357 3 0.628 1.883 0.000 -2.510 -0.000 0.000
2349 2347 2356 2358 3 0.628 1.883 0.000 -2.510 -0.000 0.000
2349 2347 2356 2359 3 2.301 -1.464 0.837 -1.674 -0.000 0.000
2356 2347 2349 2350 3 0.628 1.883 0.000 -2.510 -0.000 0.000
2356 2347 2349 2351 3 0.628 1.883 0.000 -2.510 -0.000 0.000
2356 2347 2349 2352 3 2.301 -1.464 0.837 -1.674 -0.000 0.000
2350 2349 2352 2353 3 0.628 1.883 0.000 -2.510 -0.000 0.000
2350 2349 2352 2354 3 0.628 1.883 0.000 -2.510 -0.000 0.000
2350 2349 2352 2355 3 0.628 1.883 0.000 -2.510 -0.000 0.000
2351 2349 2352 2353 3 0.628 1.883 0.000 -2.510 -0.000 0.000
2351 2349 2352 2354 3 0.628 1.883 0.000 -2.510 -0.000 0.000
2351 2349 2352 2355 3 0.628 1.883 0.000 -2.510 -0.000 0.000
2356 2359 2362 2363 3 0.628 1.883 0.000 -2.510 -0.000 0.000
2356 2359 2362 2364 3 0.628 1.883 0.000 -2.510 -0.000 0.000
2356 2359 2362 2365 3 2.301 -1.464 0.837 -1.674 -0.000 0.000
2357 2356 2359 2360 3 0.628 1.883 0.000 -2.510 -0.000 0.000
2357 2356 2359 2361 3 0.628 1.883 0.000 -2.510 -0.000 0.000
2357 2356 2359 2362 3 0.628 1.883 0.000 -2.510 -0.000 0.000
2358 2356 2359 2360 3 0.628 1.883 0.000 -2.510 -0.000 0.000
2358 2356 2359 2361 3 0.628 1.883 0.000 -2.510 -0.000 0.000
2358 2356 2359 2362 3 0.628 1.883 0.000 -2.510 -0.000 0.000
2359 2362 2365 2366 3 0.628 1.883 0.000 -2.510 -0.000 0.000
2359 2362 2365 2367 3 0.628 1.883 0.000 -2.510 -0.000 0.000
2359 2362 2365 2368 3 0.628 1.883 0.000 -2.510 -0.000 0.000
2360 2359 2362 2363 3 0.628 1.883 0.000 -2.510 -0.000 0.000
2360 2359 2362 2364 3 0.628 1.883 0.000 -2.510 -0.000 0.000
2360 2359 2362 2365 3 0.628 1.883 0.000 -2.510 -0.000 0.000
2361 2359 2362 2363 3 0.628 1.883 0.000 -2.510 -0.000 0.000
2361 2359 2362 2364 3 0.628 1.883 0.000 -2.510 -0.000 0.000
2361 2359 2362 2365 3 0.628 1.883 0.000 -2.510 -0.000 0.000
2363 2362 2365 2366 3 0.628 1.883 0.000 -2.510 -0.000 0.000
2363 2362 2365 2367 3 0.628 1.883 0.000 -2.510 -0.000 0.000
2363 2362 2365 2368 3 0.628 1.883 0.000 -2.510 -0.000 0.000
2364 2362 2365 2366 3 0.628 1.883 0.000 -2.510 -0.000 0.000
2364 2362 2365 2367 3 0.628 1.883 0.000 -2.510 -0.000 0.000
2364 2362 2365 2368 3 0.628 1.883 0.000 -2.510 -0.000 0.000
2369 2370 2373 2374 3 -0.778 -2.335 0.000 3.113 -0.000 0.000
2369 2370 2373 2377 3 -0.778 -2.335 0.000 3.113 -0.000 0.000
2370 2373 2374 2375 3 58.576 0.000 -58.576 -0.000 -0.000 0.000
2370 2373 2374 2376 3 58.576 0.000 -58.576 -0.000 -0.000 0.000
2370 2373 2374 2409 3 2.928800 -1.464400 0.209200 -1.673600 0.000000 0.000000
2370 2373 2377 2378 3 1.789 -5.052 -0.962 4.226 -0.000 0.000
2370 2373 2377 2379 3 1.789 -5.052 -0.962 4.226 -0.000 0.000
2371 2370 2373 2374 3 -0.778 -2.335 0.000 3.113 -0.000 0.000
2371 2370 2373 2377 3 -0.778 -2.335 0.000 3.113 -0.000 0.000
2372 2370 2373 2374 3 -0.778 -2.335 0.000 3.113 -0.000 0.000
2372 2370 2373 2377 3 -0.778 -2.335 0.000 3.113 -0.000 0.000
2374 2370 2373 2377 4 180.000 10.460 2
2373 2374 2409 2406 3 2.928800 -1.464400 0.209200 -1.673600 0.000000 0.000000
2373 2374 2409 2410 3 2.928800 -1.464400 0.209200 -1.673600 0.000000 0.000000
2373 2374 2409 2413 3 2.928800 -1.464400 0.209200 -1.673600 0.000000 0.000000
2373 2377 2379 2380 3 31.206 -9.768 -21.439 -0.000 -0.000 0.000
2374 2373 2377 2378 3 30.334 -5.230 -25.104 -0.000 -0.000 0.000
2374 2373 2377 2379 3 -5.858 -6.694 12.552 -0.000 -0.000 0.000
2375 2373 2374 2376 4 180.000 10.460 2
2377 2373 2374 2375 3 58.576 0.000 -58.576 -0.000 -0.000 0.000
2377 2373 2374 2376 3 58.576 0.000 -58.576 -0.000 -0.000 0.000
2377 2373 2374 2409 3 2.928800 -1.464400 0.209200 -1.673600 0.000000 0.000000
2378 2373 2377 2379 4 180.000 43.932 2
2374 2409 2410 2411 3 0.627600 1.882800 0.000000 -2.510400 0.000000 0.000000
2374 2409 2410 2412 3 0.627600 1.882800 0.000000 -2.510400 0.000000 0.000000
2374 2409 2410 2475 3 2.928800 -1.464400 0.209200 -1.673600 0.000000 0.000000
2374 2409 2413 2414 3 2.874410 0.581580 2.092000 -5.547990 0.000000 0.000000
2374 2409 2413 2415 3 2.874410 0.581580 2.092000 -5.547990 0.000000 0.000000
2375 2374 2409 2406 3 0.627600 1.882800 0.000000 -2.510400 0.000000 0.000000
2375 2374 2409 2410 3 0.627600 1.882800 0.000000 -2.510400 0.000000 0.000000
2375 2374 2409 2413 3 0.627600 1.882800 0.000000 -2.510400 0.000000 0.000000
2376 2374 2409 2406 3 0.627600 1.882800 0.000000 -2.510400 0.000000 0.000000
2376 2374 2409 2410 3 0.627600 1.882800 0.000000 -2.510400 0.000000 0.000000
2376 2374 2409 2413 3 0.627600 1.882800 0.000000 -2.510400 0.000000 0.000000
2405 2406 2409 2374 3 0.627600 1.882800 0.000000 -2.510400 0.000000 0.000000
2407 2406 2409 2374 3 0.627600 1.882800 0.000000 -2.510400 0.000000 0.000000
2408 2406 2409 2374 3 0.627600 1.882800 0.000000 -2.510400 0.000000 0.000000
2377 2379 2380 2381 3 0.414 1.243 0.000 -1.657 -0.000 0.000
2377 2379 2380 2382 3 0.414 1.243 0.000 -1.657 -0.000 0.000
2377 2379 2380 2383 3 -2.197 5.201 0.527 -3.531 -0.000 0.000
2378 2377 2379 2380 3 21.439 0.000 -21.439 -0.000 -0.000 0.000
2379 2380 2383 2384 3 0.979 2.937 0.000 -3.916 -0.000 0.000
2379 2380 2383 2385 3 2.874 0.582 2.092 -5.548 -0.000 0.000
2379 2380 2383 2392 3 2.874 0.582 2.092 -5.548 -0.000 0.000
2380 2383 2385 2386 3 0.628 1.883 0.000 -2.510 -0.000 0.000
2380 2383 2385 2387 3 0.628 1.883 0.000 -2.510 -0.000 0.000
2380 2383 2385 2388 3 2.301 -1.464 0.837 -1.674 -0.000 0.000
2380 2383 2392 2393 3 0.628 1.883 0.000 -2.510 -0.000 0.000
2380 2383 2392 2394 3 0.628 1.883 0.000 -2.510 -0.000 0.000
2380 2383 2392 2395 3 2.301 -1.464 0.837 -1.674 -0.000 0.000
2381 2380 2383 2384 3 0.628 1.883 0.000 -2.510 -0.000 0.000
2381 2380 2383 2385 3 0.628 1.883 0.000 -2.510 -0.000 0.000
2381 2380 2383 2392 3 0.628 1.883 0.000 -2.510 -0.000 0.000
2382 2380 2383 2384 3 0.628 1.883 0.000 -2.510 -0.000 0.000
2382 2380 2383 2385 3 0.628 1.883 0.000 -2.510 -0.000 0.000
2382 2380 2383 2392 3 0.628 1.883 0.000 -2.510 -0.000 0.000
2383 2385 2388 2389 3 0.628 1.883 0.000 -2.510 -0.000 0.000
2383 2385 2388 2390 3 0.628 1.883 0.000 -2.510 -0.000 0.000
2383 2385 2388 2391 3 0.628 1.883 0.000 -2.510 -0.000 0.000
2383 2392 2395 2396 3 0.628 1.883 0.000 -2.510 -0.000 0.000
2383 2392 2395 2397 3 0.628 1.883 0.000 -2.510 -0.000 0.000
2383 2392 2395 2398 3 2.301 -1.464 0.837 -1.674 -0.000 0.000
2384 2383 2385 2386 3 0.628 1.883 0.000 -2.510 -0.000 0.000
2384 2383 2385 2387 3 0.628 1.883 0.000 -2.510 -0.000 0.000
2384 2383 2385 2388 3 0.628 1.883 0.000 -2.510 -0.000 0.000
2384 2383 2392 2393 3 0.628 1.883 0.000 -2.510 -0.000 0.000
2384 2383 2392 2394 3 0.628 1.883 0.000 -2.510 -0.000 0.000
2384 2383 2392 2395 3 0.628 1.883 0.000 -2.510 -0.000 0.000
2385 2383 2392 2393 3 0.628 1.883 0.000 -2.510 -0.000 0.000
2385 2383 2392 2394 3 0.628 1.883 0.000 -2.510 -0.000 0.000
2385 2383 2392 2395 3 2.301 -1.464 0.837 -1.674 -0.000 0.000
2392 2383 2385 2386 3 0.628 1.883 0.000 -2.510 -0.000 0.000
2392 2383 2385 2387 3 0.628 1.883 0.000 -2.510 -0.000 0.000
2392 2383 2385 2388 3 2.301 -1.464 0.837 -1.674 -0.000 0.000
2386 2385 2388 2389 3 0.628 1.883 0.000 -2.510 -0.000 0.000
2386 2385 2388 2390 3 0.628 1.883 0.000 -2.510 -0.000 0.000
2386 2385 2388 2391 3 0.628 1.883 0.000 -2.510 -0.000 0.000
2387 2385 2388 2389 3 0.628 1.883 0.000 -2.510 -0.000 0.000
2387 2385 2388 2390 3 0.628 1.883 0.000 -2.510 -0.000 0.000
2387 2385 2388 2391 3 0.628 1.883 0.000 -2.510 -0.000 0.000
2392 2395 2398 2399 3 0.628 1.883 0.000 -2.510 -0.000 0.000
2392 2395 2398 2400 3 0.628 1.883 0.000 -2.510 -0.000 0.000
2392 2395 2398 2401 3 2.301 -1.464 0.837 -1.674 -0.000 0.000
2393 2392 2395 2396 3 0.628 1.883 0.000 -2.510 -0.000 0.000
2393 2392 2395 2397 3 0.628 1.883 0.000 -2.510 -0.000 0.000
2393 2392 2395 2398 3 0.628 1.883 0.000 -2.510 -0.000 0.000
2394 2392 2395 2396 3 0.628 1.883 0.000 -2.510 -0.000 0.000
2394 2392 2395 2397 3 0.628 1.883 0.000 -2.510 -0.000 0.000
2394 2392 2395 2398 3 0.628 1.883 0.000 -2.510 -0.000 0.000
2395 2398 2401 2402 3 0.628 1.883 0.000 -2.510 -0.000 0.000
2395 2398 2401 2403 3 0.628 1.883 0.000 -2.510 -0.000 0.000
2395 2398 2401 2404 3 0.628 1.883 0.000 -2.510 -0.000 0.000
2396 2395 2398 2399 3 0.628 1.883 0.000 -2.510 -0.000 0.000
2396 2395 2398 2400 3 0.628 1.883 0.000 -2.510 -0.000 0.000
2396 2395 2398 2401 3 0.628 1.883 0.000 -2.510 -0.000 0.000
2397 2395 2398 2399 3 0.628 1.883 0.000 -2.510 -0.000 0.000
2397 2395 2398 2400 3 0.628 1.883 0.000 -2.510 -0.000 0.000
2397 2395 2398 2401 3 0.628 1.883 0.000 -2.510 -0.000 0.000
2399 2398 2401 2402 3 0.628 1.883 0.000 -2.510 -0.000 0.000
2399 2398 2401 2403 3 0.628 1.883 0.000 -2.510 -0.000 0.000
2399 2398 2401 2404 3 0.628 1.883 0.000 -2.510 -0.000 0.000
2400 2398 2401 2402 3 0.628 1.883 0.000 -2.510 -0.000 0.000
2400 2398 2401 2403 3 0.628 1.883 0.000 -2.510 -0.000 0.000
2400 2398 2401 2404 3 0.628 1.883 0.000 -2.510 -0.000 0.000
2405 2406 2409 2410 3 -0.778 -2.335 0.000 3.113 -0.000 0.000
2405 2406 2409 2413 3 -0.778 -2.335 0.000 3.113 -0.000 0.000
2406 2409 2410 2411 3 58.576 0.000 -58.576 -0.000 -0.000 0.000
2406 2409 2410 2412 3 58.576 0.000 -58.576 -0.000 -0.000 0.000
2406 2409 2410 2475 3 2.928800 -1.464400 0.209200 -1.673600 0.000000 0.000000
2406 2409 2413 2414 3 1.789 -5.052 -0.962 4.226 -0.000 0.000
2406 2409 2413 2415 3 1.789 -5.052 -0.962 4.226 -0.000 0.000
2407 2406 2409 2410 3 -0.778 -2.335 0.000 3.113 -0.000 0.000
2407 2406 2409 2413 3 -0.778 -2.335 0.000 3.113 -0.000 0.000
2408 2406 2409 2410 3 -0.778 -2.335 0.000 3.113 -0.000 0.000
2408 2406 2409 2413 3 -0.778 -2.335 0.000 3.113 -0.000 0.000
2410 2406 2409 2413 4 180.000 10.460 2
2409 2410 2475 2472 3 2.928800 -1.464400 0.209200 -1.673600 0.000000 0.000000
2409 2410 2475 2476 3 2.928800 -1.464400 0.209200 -1.673600 0.000000 0.000000
2409 2410 2475 2479 3 2.928800 -1.464400 0.209200 -1.673600 0.000000 0.000000
2409 2413 2415 2416 3 31.206 -9.768 -21.439 -0.000 -0.000 0.000
2410 2409 2413 2414 3 30.334 -5.230 -25.104 -0.000 -0.000 0.000
2410 2409 2413 2415 3 -5.858 -6.694 12.552 -0.000 -0.000 0.000
2411 2409 2410 2412 4 180.000 10.460 2
2413 2409 2410 2411 3 58.576 0.000 -58.576 -0.000 -0.000 0.000
2413 2409 2410 2412 3 58.576 0.000 -58.576 -0.000 -0.000 0.000
2413 2409 2410 2475 3 2.928800 -1.464400 0.209200 -1.673600 0.000000 0.000000
2414 2409 2413 2415 4 180.000 43.932 2
2410 2475 2476 2477 3 0.627600 1.882800 0.000000 -2.510400 0.000000 0.000000
2410 2475 2476 2478 3 0.627600 1.882800 0.000000 -2.510400 0.000000 0.000000
2410 2475 2476 2511 3 2.928800 -1.464400 0.209200 -1.673600 0.000000 0.000000
2410 2475 2479 2480 3 2.874410 0.581580 2.092000 -5.547990 0.000000 0.000000
2410 2475 2479 2481 3 2.874410 0.581580 2.092000 -5.547990 0.000000 0.000000
2411 2410 2475 2472 3 0.627600 1.882800 0.000000 -2.510400 0.000000 0.000000
2411 2410 2475 2476 3 0.627600 1.882800 0.000000 -2.510400 0.000000 0.000000
2411 2410 2475 2479 3 0.627600 1.882800 0.000000 -2.510400 0.000000 0.000000
2412 2410 2475 2472 3 0.627600 1.882800 0.000000 -2.510400 0.000000 0.000000
2412 2410 2475 2476 3 0.627600 1.882800 0.000000 -2.510400 0.000000 0.000000
2412 2410 2475 2479 3 0.627600 1.882800 0.000000 -2.510400 0.000000 0.000000
2471 2472 2475 2410 3 0.627600 1.882800 0.000000 -2.510400 0.000000 0.000000
2473 2472 2475 2410 3 0.627600 1.882800 0.000000 -2.510400 0.000000 0.000000
2474 2472 2475 2410 3 0.627600 1.882800 0.000000 -2.510400 0.000000 0.000000
2413 2415 2416 2417 3 0.414 1.243 0.000 -1.657 -0.000 0.000
2413 2415 2416 2418 3 0.414 1.243 0.000 -1.657 -0.000 0.000
2413 2415 2416 2419 3 -2.197 5.201 0.527 -3.531 -0.000 0.000
2414 2413 2415 2416 3 21.439 0.000 -21.439 -0.000 -0.000 0.000
2415 2416 2419 2420 3 0.979 2.937 0.000 -3.916 -0.000 0.000
2415 2416 2419 2421 3 0.979 2.937 0.000 -3.916 -0.000 0.000
2415 2416 2419 2422 3 2.874 0.582 2.092 -5.548 -0.000 0.000
2416 2419 2422 2423 3 0.628 1.883 0.000 -2.510 -0.000 0.000
2416 2419 2422 2424 3 0.628 1.883 0.000 -2.510 -0.000 0.000
2416 2419 2422 2425 3 2.301 -1.464 0.837 -1.674 -0.000 0.000
2417 2416 2419 2420 3 0.628 1.883 0.000 -2.510 -0.000 0.000
2417 2416 2419 2421 3 0.628 1.883 0.000 -2.510 -0.000 0.000
2417 2416 2419 2422 3 0.628 1.883 0.000 -2.510 -0.000 0.000
2418 2416 2419 2420 3 0.628 1.883 0.000 -2.510 -0.000 0.000
2418 2416 2419 2421 3 0.628 1.883 0.000 -2.510 -0.000 0.000
2418 2416 2419 2422 3 0.628 1.883 0.000 -2.510 -0.000 0.000
2419 2422 2425 2426 3 0.628 1.883 0.000 -2.510 -0.000 0.000
2419 2422 2425 2427 3 0.628 1.883 0.000 -2.510 -0.000 0.000
2419 2422 2425 2428 3 2.301 -1.464 0.837 -1.674 -0.000 0.000
2420 2419 2422 2423 3 0.628 1.883 0.000 -2.510 -0.000 0.000
2420 2419 2422 2424 3 0.628 1.883 0.000 -2.510 -0.000 0.000
2420 2419 2422 2425 3 0.628 1.883 0.000 -2.510 -0.000 0.000
2421 2419 2422 2423 3 0.628 1.883 0.000 -2.510 -0.000 0.000
2421 2419 2422 2424 3 0.628 1.883 0.000 -2.510 -0.000 0.000
2421 2419 2422 2425 3 0.628 1.883 0.000 -2.510 -0.000 0.000
2422 2425 2428 2429 3 0.628 1.883 0.000 -2.510 -0.000 0.000
2422 2425 2428 2430 3 0.628 1.883 0.000 -2.510 -0.000 0.000
2422 2425 2428 2431 3 2.301 -1.464 0.837 -1.674 -0.000 0.000
2423 2422 2425 2426 3 0.628 1.883 0.000 -2.510 -0.000 0.000
2423 2422 2425 2427 3 0.628 1.883 0.000 -2.510 -0.000 0.000
2423 2422 2425 2428 3 0.628 1.883 0.000 -2.510 -0.000 0.000
2424 2422 2425 2426 3 0.628 1.883 0.000 -2.510 -0.000 0.000
2424 2422 2425 2427 3 0.628 1.883 0.000 -2.510 -0.000 0.000
2424 2422 2425 2428 3 0.628 1.883 0.000 -2.510 -0.000 0.000
2425 2428 2431 2432 3 0.628 1.883 0.000 -2.510 -0.000 0.000
2425 2428 2431 2433 3 0.628 1.883 0.000 -2.510 -0.000 0.000
2425 2428 2431 2434 3 2.301 -1.464 0.837 -1.674 -0.000 0.000
2426 2425 2428 2429 3 0.628 1.883 0.000 -2.510 -0.000 0.000
2426 2425 2428 2430 3 0.628 1.883 0.000 -2.510 -0.000 0.000
2426 2425 2428 2431 3 0.628 1.883 0.000 -2.510 -0.000 0.000
2427 2425 2428 2429 3 0.628 1.883 0.000 -2.510 -0.000 0.000
2427 2425 2428 2430 3 0.628 1.883 0.000 -2.510 -0.000 0.000
2427 2425 2428 2431 3 0.628 1.883 0.000 -2.510 -0.000 0.000
2428 2431 2434 2435 3 0.628 1.883 0.000 -2.510 -0.000 0.000
2428 2431 2434 2436 3 0.628 1.883 0.000 -2.510 -0.000 0.000
2428 2431 2434 2437 3 2.301 -1.464 0.837 -1.674 -0.000 0.000
2429 2428 2431 2432 3 0.628 1.883 0.000 -2.510 -0.000 0.000
2429 2428 2431 2433 3 0.628 1.883 0.000 -2.510 -0.000 0.000
2429 2428 2431 2434 3 0.628 1.883 0.000 -2.510 -0.000 0.000
2430 2428 2431 2432 3 0.628 1.883 0.000 -2.510 -0.000 0.000
2430 2428 2431 2433 3 0.628 1.883 0.000 -2.510 -0.000 0.000
2430 2428 2431 2434 3 0.628 1.883 0.000 -2.510 -0.000 0.000
2431 2434 2437 2438 3 0.628 1.883 0.000 -2.510 -0.000 0.000
2431 2434 2437 2439 3 0.628 1.883 0.000 -2.510 -0.000 0.000
2431 2434 2437 2440 3 2.301 -1.464 0.837 -1.674 -0.000 0.000
2432 2431 2434 2435 3 0.628 1.883 0.000 -2.510 -0.000 0.000
2432 2431 2434 2436 3 0.628 1.883 0.000 -2.510 -0.000 0.000
2432 2431 2434 2437 3 0.628 1.883 0.000 -2.510 -0.000 0.000
2433 2431 2434 2435 3 0.628 1.883 0.000 -2.510 -0.000 0.000
2433 2431 2434 2436 3 0.628 1.883 0.000 -2.510 -0.000 0.000
2433 2431 2434 2437 3 0.628 1.883 0.000 -2.510 -0.000 0.000
2434 2437 2440 2441 3 0.628 1.883 0.000 -2.510 -0.000 0.000
2434 2437 2440 2442 3 0.628 1.883 0.000 -2.510 -0.000 0.000
2434 2437 2440 2443 3 2.301 -1.464 0.837 -1.674 -0.000 0.000
2435 2434 2437 2438 3 0.628 1.883 0.000 -2.510 -0.000 0.000
2435 2434 2437 2439 3 0.628 1.883 0.000 -2.510 -0.000 0.000
2435 2434 2437 2440 3 0.628 1.883 0.000 -2.510 -0.000 0.000
2436 2434 2437 2438 3 0.628 1.883 0.000 -2.510 -0.000 0.000
2436 2434 2437 2439 3 0.628 1.883 0.000 -2.510 -0.000 0.000
2436 2434 2437 2440 3 0.628 1.883 0.000 -2.510 -0.000 0.000
2437 2440 2443 2444 3 0.628 1.883 0.000 -2.510 -0.000 0.000
2437 2440 2443 2445 3 0.628 1.883 0.000 -2.510 -0.000 0.000
2437 2440 2443 2446 3 2.301 -1.464 0.837 -1.674 -0.000 0.000
2438 2437 2440 2441 3 0.628 1.883 0.000 -2.510 -0.000 0.000
2438 2437 2440 2442 3 0.628 1.883 0.000 -2.510 -0.000 0.000
2438 2437 2440 2443 3 0.628 1.883 0.000 -2.510 -0.000 0.000
2439 2437 2440 2441 3 0.628 1.883 0.000 -2.510 -0.000 0.000
2439 2437 2440 2442 3 0.628 1.883 0.000 -2.510 -0.000 0.000
2439 2437 2440 2443 3 0.628 1.883 0.000 -2.510 -0.000 0.000
2440 2443 2446 2447 3 0.628 1.883 0.000 -2.510 -0.000 0.000
2440 2443 2446 2448 3 0.628 1.883 0.000 -2.510 -0.000 0.000
2440 2443 2446 2449 3 2.301 -1.464 0.837 -1.674 -0.000 0.000
2441 2440 2443 2444 3 0.628 1.883 0.000 -2.510 -0.000 0.000
2441 2440 2443 2445 3 0.628 1.883 0.000 -2.510 -0.000 0.000
2441 2440 2443 2446 3 0.628 1.883 0.000 -2.510 -0.000 0.000
2442 2440 2443 2444 3 0.628 1.883 0.000 -2.510 -0.000 0.000
2442 2440 2443 2445 3 0.628 1.883 0.000 -2.510 -0.000 0.000
2442 2440 2443 2446 3 0.628 1.883 0.000 -2.510 -0.000 0.000
2443 2446 2449 2450 3 0.628 1.883 0.000 -2.510 -0.000 0.000
2443 2446 2449 2451 3 0.628 1.883 0.000 -2.510 -0.000 0.000
2443 2446 2449 2452 3 2.301 -1.464 0.837 -1.674 -0.000 0.000
2444 2443 2446 2447 3 0.628 1.883 0.000 -2.510 -0.000 0.000
2444 2443 2446 2448 3 0.628 1.883 0.000 -2.510 -0.000 0.000
2444 2443 2446 2449 3 0.628 1.883 0.000 -2.510 -0.000 0.000
2445 2443 2446 2447 3 0.628 1.883 0.000 -2.510 -0.000 0.000
2445 2443 2446 2448 3 0.628 1.883 0.000 -2.510 -0.000 0.000
2445 2443 2446 2449 3 0.628 1.883 0.000 -2.510 -0.000 0.000
2446 2449 2452 2453 3 0.628 1.883 0.000 -2.510 -0.000 0.000
2446 2449 2452 2454 3 0.628 1.883 0.000 -2.510 -0.000 0.000
2446 2449 2452 2455 3 2.301 -1.464 0.837 -1.674 -0.000 0.000
2447 2446 2449 2450 3 0.628 1.883 0.000 -2.510 -0.000 0.000
2447 2446 2449 2451 3 0.628 1.883 0.000 -2.510 -0.000 0.000
2447 2446 2449 2452 3 0.628 1.883 0.000 -2.510 -0.000 0.000
2448 2446 2449 2450 3 0.628 1.883 0.000 -2.510 -0.000 0.000
2448 2446 2449 2451 3 0.628 1.883 0.000 -2.510 -0.000 0.000
2448 2446 2449 2452 3 0.628 1.883 0.000 -2.510 -0.000 0.000
2449 2452 2455 2456 3 0.628 1.883 0.000 -2.510 -0.000 0.000
2449 2452 2455 2457 3 0.628 1.883 0.000 -2.510 -0.000 0.000
2449 2452 2455 2458 3 2.301 -1.464 0.837 -1.674 -0.000 0.000
2450 2449 2452 2453 3 0.628 1.883 0.000 -2.510 -0.000 0.000
2450 2449 2452 2454 3 0.628 1.883 0.000 -2.510 -0.000 0.000
2450 2449 2452 2455 3 0.628 1.883 0.000 -2.510 -0.000 0.000
2451 2449 2452 2453 3 0.628 1.883 0.000 -2.510 -0.000 0.000
2451 2449 2452 2454 3 0.628 1.883 0.000 -2.510 -0.000 0.000
2451 2449 2452 2455 3 0.628 1.883 0.000 -2.510 -0.000 0.000
2452 2455 2458 2459 3 0.628 1.883 0.000 -2.510 -0.000 0.000
2452 2455 2458 2460 3 0.628 1.883 0.000 -2.510 -0.000 0.000
2452 2455 2458 2461 3 2.301 -1.464 0.837 -1.674 -0.000 0.000
2453 2452 2455 2456 3 0.628 1.883 0.000 -2.510 -0.000 0.000
2453 2452 2455 2457 3 0.628 1.883 0.000 -2.510 -0.000 0.000
2453 2452 2455 2458 3 0.628 1.883 0.000 -2.510 -0.000 0.000
2454 2452 2455 2456 3 0.628 1.883 0.000 -2.510 -0.000 0.000
2454 2452 2455 2457 3 0.628 1.883 0.000 -2.510 -0.000 0.000
2454 2452 2455 2458 3 0.628 1.883 0.000 -2.510 -0.000 0.000
2455 2458 2461 2462 3 0.628 1.883 0.000 -2.510 -0.000 0.000
2455 2458 2461 2463 3 0.628 1.883 0.000 -2.510 -0.000 0.000
2455 2458 2461 2464 3 2.301 -1.464 0.837 -1.674 -0.000 0.000
2456 2455 2458 2459 3 0.628 1.883 0.000 -2.510 -0.000 0.000
2456 2455 2458 2460 3 0.628 1.883 0.000 -2.510 -0.000 0.000
2456 2455 2458 2461 3 0.628 1.883 0.000 -2.510 -0.000 0.000
2457 2455 2458 2459 3 0.628 1.883 0.000 -2.510 -0.000 0.000
2457 2455 2458 2460 3 0.628 1.883 0.000 -2.510 -0.000 0.000
2457 2455 2458 2461 3 0.628 1.883 0.000 -2.510 -0.000 0.000
2458 2461 2464 2465 3 0.628 1.883 0.000 -2.510 -0.000 0.000
2458 2461 2464 2466 3 0.628 1.883 0.000 -2.510 -0.000 0.000
2458 2461 2464 2467 3 2.301 -1.464 0.837 -1.674 -0.000 0.000
2459 2458 2461 2462 3 0.628 1.883 0.000 -2.510 -0.000 0.000
2459 2458 2461 2463 3 0.628 1.883 0.000 -2.510 -0.000 0.000
2459 2458 2461 2464 3 0.628 1.883 0.000 -2.510 -0.000 0.000
2460 2458 2461 2462 3 0.628 1.883 0.000 -2.510 -0.000 0.000
2460 2458 2461 2463 3 0.628 1.883 0.000 -2.510 -0.000 0.000
2460 2458 2461 2464 3 0.628 1.883 0.000 -2.510 -0.000 0.000
2461 2464 2467 2468 3 0.628 1.883 0.000 -2.510 -0.000 0.000
2461 2464 2467 2469 3 0.628 1.883 0.000 -2.510 -0.000 0.000
2461 2464 2467 2470 3 0.628 1.883 0.000 -2.510 -0.000 0.000
2462 2461 2464 2465 3 0.628 1.883 0.000 -2.510 -0.000 0.000
2462 2461 2464 2466 3 0.628 1.883 0.000 -2.510 -0.000 0.000
2462 2461 2464 2467 3 0.628 1.883 0.000 -2.510 -0.000 0.000
2463 2461 2464 2465 3 0.628 1.883 0.000 -2.510 -0.000 0.000
2463 2461 2464 2466 3 0.628 1.883 0.000 -2.510 -0.000 0.000
2463 2461 2464 2467 3 0.628 1.883 0.000 -2.510 -0.000 0.000
2465 2464 2467 2468 3 0.628 1.883 0.000 -2.510 -0.000 0.000
2465 2464 2467 2469 3 0.628 1.883 0.000 -2.510 -0.000 0.000
2465 2464 2467 2470 3 0.628 1.883 0.000 -2.510 -0.000 0.000
2466 2464 2467 2468 3 0.628 1.883 0.000 -2.510 -0.000 0.000
2466 2464 2467 2469 3 0.628 1.883 0.000 -2.510 -0.000 0.000
2466 2464 2467 2470 3 0.628 1.883 0.000 -2.510 -0.000 0.000
2471 2472 2475 2476 3 -0.778 -2.335 0.000 3.113 -0.000 0.000
2471 2472 2475 2479 3 -0.778 -2.335 0.000 3.113 -0.000 0.000
2472 2475 2476 2477 3 58.576 0.000 -58.576 -0.000 -0.000 0.000
2472 2475 2476 2478 3 58.576 0.000 -58.576 -0.000 -0.000 0.000
2472 2475 2476 2511 3 2.928800 -1.464400 0.209200 -1.673600 0.000000 0.000000
2472 2475 2479 2480 3 1.789 -5.052 -0.962 4.226 -0.000 0.000
2472 2475 2479 2481 3 1.789 -5.052 -0.962 4.226 -0.000 0.000
2473 2472 2475 2476 3 -0.778 -2.335 0.000 3.113 -0.000 0.000
2473 2472 2475 2479 3 -0.778 -2.335 0.000 3.113 -0.000 0.000
2474 2472 2475 2476 3 -0.778 -2.335 0.000 3.113 -0.000 0.000
2474 2472 2475 2479 3 -0.778 -2.335 0.000 3.113 -0.000 0.000
2476 2472 2475 2479 4 180.000 10.460 2
2475 2476 2511 2508 3 2.928800 -1.464400 0.209200 -1.673600 0.000000 0.000000
2475 2476 2511 2512 3 2.928800 -1.464400 0.209200 -1.673600 0.000000 0.000000
2475 2476 2511 2515 3 2.928800 -1.464400 0.209200 -1.673600 0.000000 0.000000
2475 2479 2481 2482 3 31.206 -9.768 -21.439 -0.000 -0.000 0.000
2476 2475 2479 2480 3 30.334 -5.230 -25.104 -0.000 -0.000 0.000
2476 2475 2479 2481 3 -5.858 -6.694 12.552 -0.000 -0.000 0.000
2477 2475 2476 2478 4 180.000 10.460 2
2479 2475 2476 2477 3 58.576 0.000 -58.576 -0.000 -0.000 0.000
2479 2475 2476 2478 3 58.576 0.000 -58.576 -0.000 -0.000 0.000
2479 2475 2476 2511 3 2.928800 -1.464400 0.209200 -1.673600 0.000000 0.000000
2480 2475 2479 2481 4 180.000 43.932 2
2476 2511 2512 2513 3 0.627600 1.882800 0.000000 -2.510400 0.000000 0.000000
2476 2511 2512 2514 3 0.627600 1.882800 0.000000 -2.510400 0.000000 0.000000
2476 2511 2512 2577 3 2.928800 -1.464400 0.209200 -1.673600 0.000000 0.000000
2476 2511 2515 2516 3 2.874410 0.581580 2.092000 -5.547990 0.000000 0.000000
2476 2511 2515 2517 3 2.874410 0.581580 2.092000 -5.547990 0.000000 0.000000
2477 2476 2511 2508 3 0.627600 1.882800 0.000000 -2.510400 0.000000 0.000000
2477 2476 2511 2512 3 0.627600 1.882800 0.000000 -2.510400 0.000000 0.000000
2477 2476 2511 2515 3 0.627600 1.882800 0.000000 -2.510400 0.000000 0.000000
2478 2476 2511 2508 3 0.627600 1.882800 0.000000 -2.510400 0.000000 0.000000
2478 2476 2511 2512 3 0.627600 1.882800 0.000000 -2.510400 0.000000 0.000000
2478 2476 2511 2515 3 0.627600 1.882800 0.000000 -2.510400 0.000000 0.000000
2507 2508 2511 2476 3 0.627600 1.882800 0.000000 -2.510400 0.000000 0.000000
2509 2508 2511 2476 3 0.627600 1.882800 0.000000 -2.510400 0.000000 0.000000
2510 2508 2511 2476 3 0.627600 1.882800 0.000000 -2.510400 0.000000 0.000000
2479 2481 2482 2483 3 0.414 1.243 0.000 -1.657 -0.000 0.000
2479 2481 2482 2484 3 0.414 1.243 0.000 -1.657 -0.000 0.000
2479 2481 2482 2485 3 -2.197 5.201 0.527 -3.531 -0.000 0.000
2480 2479 2481 2482 3 21.439 0.000 -21.439 -0.000 -0.000 0.000
2481 2482 2485 2486 3 0.979 2.937 0.000 -3.916 -0.000 0.000
2481 2482 2485 2487 3 2.874 0.582 2.092 -5.548 -0.000 0.000
2481 2482 2485 2494 3 2.874 0.582 2.092 -5.548 -0.000 0.000
2482 2485 2487 2488 3 0.628 1.883 0.000 -2.510 -0.000 0.000
2482 2485 2487 2489 3 0.628 1.883 0.000 -2.510 -0.000 0.000
2482 2485 2487 2490 3 2.301 -1.464 0.837 -1.674 -0.000 0.000
2482 2485 2494 2495 3 0.628 1.883 0.000 -2.510 -0.000 0.000
2482 2485 2494 2496 3 0.628 1.883 0.000 -2.510 -0.000 0.000
2482 2485 2494 2497 3 2.301 -1.464 0.837 -1.674 -0.000 0.000
2483 2482 2485 2486 3 0.628 1.883 0.000 -2.510 -0.000 0.000
2483 2482 2485 2487 3 0.628 1.883 0.000 -2.510 -0.000 0.000
2483 2482 2485 2494 3 0.628 1.883 0.000 -2.510 -0.000 0.000
2484 2482 2485 2486 3 0.628 1.883 0.000 -2.510 -0.000 0.000
2484 2482 2485 2487 3 0.628 1.883 0.000 -2.510 -0.000 0.000
2484 2482 2485 2494 3 0.628 1.883 0.000 -2.510 -0.000 0.000
2485 2487 2490 2491 3 0.628 1.883 0.000 -2.510 -0.000 0.000
2485 2487 2490 2492 3 0.628 1.883 0.000 -2.510 -0.000 0.000
2485 2487 2490 2493 3 0.628 1.883 0.000 -2.510 -0.000 0.000
2485 2494 2497 2498 3 0.628 1.883 0.000 -2.510 -0.000 0.000
2485 2494 2497 2499 3 0.628 1.883 0.000 -2.510 -0.000 0.000
2485 2494 2497 2500 3 2.301 -1.464 0.837 -1.674 -0.000 0.000
2486 2485 2487 2488 3 0.628 1.883 0.000 -2.510 -0.000 0.000
2486 2485 2487 2489 3 0.628 1.883 0.000 -2.510 -0.000 0.000
2486 2485 2487 2490 3 0.628 1.883 0.000 -2.510 -0.000 0.000
2486 2485 2494 2495 3 0.628 1.883 0.000 -2.510 -0.000 0.000
2486 2485 2494 2496 3 0.628 1.883 0.000 -2.510 -0.000 0.000
2486 2485 2494 2497 3 0.628 1.883 0.000 -2.510 -0.000 0.000
2487 2485 2494 2495 3 0.628 1.883 0.000 -2.510 -0.000 0.000
2487 2485 2494 2496 3 0.628 1.883 0.000 -2.510 -0.000 0.000
2487 2485 2494 2497 3 2.301 -1.464 0.837 -1.674 -0.000 0.000
2494 2485 2487 2488 3 0.628 1.883 0.000 -2.510 -0.000 0.000
2494 2485 2487 2489 3 0.628 1.883 0.000 -2.510 -0.000 0.000
2494 2485 2487 2490 3 2.301 -1.464 0.837 -1.674 -0.000 0.000
2488 2487 2490 2491 3 0.628 1.883 0.000 -2.510 -0.000 0.000
2488 2487 2490 2492 3 0.628 1.883 0.000 -2.510 -0.000 0.000
2488 2487 2490 2493 3 0.628 1.883 0.000 -2.510 -0.000 0.000
2489 2487 2490 2491 3 0.628 1.883 0.000 -2.510 -0.000 0.000
2489 2487 2490 2492 3 0.628 1.883 0.000 -2.510 -0.000 0.000
2489 2487 2490 2493 3 0.628 1.883 0.000 -2.510 -0.000 0.000
2494 2497 2500 2501 3 0.628 1.883 0.000 -2.510 -0.000 0.000
2494 2497 2500 2502 3 0.628 1.883 0.000 -2.510 -0.000 0.000
2494 2497 2500 2503 3 2.301 -1.464 0.837 -1.674 -0.000 0.000
2495 2494 2497 2498 3 0.628 1.883 0.000 -2.510 -0.000 0.000
2495 2494 2497 2499 3 0.628 1.883 0.000 -2.510 -0.000 0.000
2495 2494 2497 2500 3 0.628 1.883 0.000 -2.510 -0.000 0.000
2496 2494 2497 2498 3 0.628 1.883 0.000 -2.510 -0.000 0.000
2496 2494 2497 2499 3 0.628 1.883 0.000 -2.510 -0.000 0.000
2496 2494 2497 2500 3 0.628 1.883 0.000 -2.510 -0.000 0.000
2497 2500 2503 2504 3 0.628 1.883 0.000 -2.510 -0.000 0.000
2497 2500 2503 2505 3 0.628 1.883 0.000 -2.510 -0.000 0.000
2497 2500 2503 2506 3 0.628 1.883 0.000 -2.510 -0.000 0.000
2498 2497 2500 2501 3 0.628 1.883 0.000 -2.510 -0.000 0.000
2498 2497 2500 2502 3 0.628 1.883 0.000 -2.510 -0.000 0.000
2498 2497 2500 2503 3 0.628 1.883 0.000 -2.510 -0.000 0.000
2499 2497 2500 2501 3 0.628 1.883 0.000 -2.510 -0.000 0.000
2499 2497 2500 2502 3 0.628 1.883 0.000 -2.510 -0.000 0.000
2499 2497 2500 2503 3 0.628 1.883 0.000 -2.510 -0.000 0.000
2501 2500 2503 2504 3 0.628 1.883 0.000 -2.510 -0.000 0.000
2501 2500 2503 2505 3 0.628 1.883 0.000 -2.510 -0.000 0.000
2501 2500 2503 2506 3 0.628 1.883 0.000 -2.510 -0.000 0.000
2502 2500 2503 2504 3 0.628 1.883 0.000 -2.510 -0.000 0.000
2502 2500 2503 2505 3 0.628 1.883 0.000 -2.510 -0.000 0.000
2502 2500 2503 2506 3 0.628 1.883 0.000 -2.510 -0.000 0.000
2507 2508 2511 2512 3 -0.778 -2.335 0.000 3.113 -0.000 0.000
2507 2508 2511 2515 3 -0.778 -2.335 0.000 3.113 -0.000 0.000
2508 2511 2512 2513 3 58.576 0.000 -58.576 -0.000 -0.000 0.000
2508 2511 2512 2514 3 58.576 0.000 -58.576 -0.000 -0.000 0.000
2508 2511 2512 2577 3 2.928800 -1.464400 0.209200 -1.673600 0.000000 0.000000
2508 2511 2515 2516 3 1.789 -5.052 -0.962 4.226 -0.000 0.000
2508 2511 2515 2517 3 1.789 -5.052 -0.962 4.226 -0.000 0.000
2509 2508 2511 2512 3 -0.778 -2.335 0.000 3.113 -0.000 0.000
2509 2508 2511 2515 3 -0.778 -2.335 0.000 3.113 -0.000 0.000
2510 2508 2511 2512 3 -0.778 -2.335 0.000 3.113 -0.000 0.000
2510 2508 2511 2515 3 -0.778 -2.335 0.000 3.113 -0.000 0.000
2512 2508 2511 2515 4 180.000 10.460 2
2511 2512 2577 2574 3 2.928800 -1.464400 0.209200 -1.673600 0.000000 0.000000
2511 2512 2577 2578 3 2.928800 -1.464400 0.209200 -1.673600 0.000000 0.000000
2511 2512 2577 2581 3 2.928800 -1.464400 0.209200 -1.673600 0.000000 0.000000
2511 2515 2517 2518 3 31.206 -9.768 -21.439 -0.000 -0.000 0.000
2512 2511 2515 2516 3 30.334 -5.230 -25.104 -0.000 -0.000 0.000
2512 2511 2515 2517 3 -5.858 -6.694 12.552 -0.000 -0.000 0.000
2513 2511 2512 2514 4 180.000 10.460 2
2515 2511 2512 2513 3 58.576 0.000 -58.576 -0.000 -0.000 0.000
2515 2511 2512 2514 3 58.576 0.000 -58.576 -0.000 -0.000 0.000
2515 2511 2512 2577 3 2.928800 -1.464400 0.209200 -1.673600 0.000000 0.000000
2516 2511 2515 2517 4 180.000 43.932 2
2512 2577 2578 2579 3 0.627600 1.882800 0.000000 -2.510400 0.000000 0.000000
2512 2577 2578 2580 3 0.627600 1.882800 0.000000 -2.510400 0.000000 0.000000
2512 2577 2578 2613 3 2.928800 -1.464400 0.209200 -1.673600 0.000000 0.000000
2512 2577 2581 2582 3 2.874410 0.581580 2.092000 -5.547990 0.000000 0.000000
2512 2577 2581 2583 3 2.874410 0.581580 2.092000 -5.547990 0.000000 0.000000
2513 2512 2577 2574 3 0.627600 1.882800 0.000000 -2.510400 0.000000 0.000000
2513 2512 2577 2578 3 0.627600 1.882800 0.000000 -2.510400 0.000000 0.000000
2513 2512 2577 2581 3 0.627600 1.882800 0.000000 -2.510400 0.000000 0.000000
2514 2512 2577 2574 3 0.627600 1.882800 0.000000 -2.510400 0.000000 0.000000
2514 2512 2577 2578 3 0.627600 1.882800 0.000000 -2.510400 0.000000 0.000000
2514 2512 2577 2581 3 0.627600 1.882800 0.000000 -2.510400 0.000000 0.000000
2573 2574 2577 2512 3 0.627600 1.882800 0.000000 -2.510400 0.000000 0.000000
2575 2574 2577 2512 3 0.627600 1.882800 0.000000 -2.510400 0.000000 0.000000
2576 2574 2577 2512 3 0.627600 1.882800 0.000000 -2.510400 0.000000 0.000000
2515 2517 2518 2519 3 0.414 1.243 0.000 -1.657 -0.000 0.000
2515 2517 2518 2520 3 0.414 1.243 0.000 -1.657 -0.000 0.000
2515 2517 2518 2521 3 -2.197 5.201 0.527 -3.531 -0.000 0.000
2516 2515 2517 2518 3 21.439 0.000 -21.439 -0.000 -0.000 0.000
2517 2518 2521 2522 3 0.979 2.937 0.000 -3.916 -0.000 0.000
2517 2518 2521 2523 3 0.979 2.937 0.000 -3.916 -0.000 0.000
2517 2518 2521 2524 3 2.874 0.582 2.092 -5.548 -0.000 0.000
2518 2521 2524 2525 3 0.628 1.883 0.000 -2.510 -0.000 0.000
2518 2521 2524 2526 3 0.628 1.883 0.000 -2.510 -0.000 0.000
2518 2521 2524 2527 3 2.301 -1.464 0.837 -1.674 -0.000 0.000
2519 2518 2521 2522 3 0.628 1.883 0.000 -2.510 -0.000 0.000
2519 2518 2521 2523 3 0.628 1.883 0.000 -2.510 -0.000 0.000
2519 2518 2521 2524 3 0.628 1.883 0.000 -2.510 -0.000 0.000
2520 2518 2521 2522 3 0.628 1.883 0.000 -2.510 -0.000 0.000
2520 2518 2521 2523 3 0.628 1.883 0.000 -2.510 -0.000 0.000
2520 2518 2521 2524 3 0.628 1.883 0.000 -2.510 -0.000 0.000
2521 2524 2527 2528 3 0.628 1.883 0.000 -2.510 -0.000 0.000
2521 2524 2527 2529 3 0.628 1.883 0.000 -2.510 -0.000 0.000
2521 2524 2527 2530 3 2.301 -1.464 0.837 -1.674 -0.000 0.000
2522 2521 2524 2525 3 0.628 1.883 0.000 -2.510 -0.000 0.000
2522 2521 2524 2526 3 0.628 1.883 0.000 -2.510 -0.000 0.000
2522 2521 2524 2527 3 0.628 1.883 0.000 -2.510 -0.000 0.000
2523 2521 2524 2525 3 0.628 1.883 0.000 -2.510 -0.000 0.000
2523 2521 2524 2526 3 0.628 1.883 0.000 -2.510 -0.000 0.000
2523 2521 2524 2527 3 0.628 1.883 0.000 -2.510 -0.000 0.000
2524 2527 2530 2531 3 0.628 1.883 0.000 -2.510 -0.000 0.000
2524 2527 2530 2532 3 0.628 1.883 0.000 -2.510 -0.000 0.000
2524 2527 2530 2533 3 2.301 -1.464 0.837 -1.674 -0.000 0.000
2525 2524 2527 2528 3 0.628 1.883 0.000 -2.510 -0.000 0.000
2525 2524 2527 2529 3 0.628 1.883 0.000 -2.510 -0.000 0.000
2525 2524 2527 2530 3 0.628 1.883 0.000 -2.510 -0.000 0.000
2526 2524 2527 2528 3 0.628 1.883 0.000 -2.510 -0.000 0.000
2526 2524 2527 2529 3 0.628 1.883 0.000 -2.510 -0.000 0.000
2526 2524 2527 2530 3 0.628 1.883 0.000 -2.510 -0.000 0.000
2527 2530 2533 2534 3 0.628 1.883 0.000 -2.510 -0.000 0.000
2527 2530 2533 2535 3 0.628 1.883 0.000 -2.510 -0.000 0.000
2527 2530 2533 2536 3 2.301 -1.464 0.837 -1.674 -0.000 0.000
2528 2527 2530 2531 3 0.628 1.883 0.000 -2.510 -0.000 0.000
2528 2527 2530 2532 3 0.628 1.883 0.000 -2.510 -0.000 0.000
2528 2527 2530 2533 3 0.628 1.883 0.000 -2.510 -0.000 0.000
2529 2527 2530 2531 3 0.628 1.883 0.000 -2.510 -0.000 0.000
2529 2527 2530 2532 3 0.628 1.883 0.000 -2.510 -0.000 0.000
2529 2527 2530 2533 3 0.628 1.883 0.000 -2.510 -0.000 0.000
2530 2533 2536 2537 3 0.628 1.883 0.000 -2.510 -0.000 0.000
2530 2533 2536 2538 3 0.628 1.883 0.000 -2.510 -0.000 0.000
2530 2533 2536 2539 3 2.301 -1.464 0.837 -1.674 -0.000 0.000
2531 2530 2533 2534 3 0.628 1.883 0.000 -2.510 -0.000 0.000
2531 2530 2533 2535 3 0.628 1.883 0.000 -2.510 -0.000 0.000
2531 2530 2533 2536 3 0.628 1.883 0.000 -2.510 -0.000 0.000
2532 2530 2533 2534 3 0.628 1.883 0.000 -2.510 -0.000 0.000
2532 2530 2533 2535 3 0.628 1.883 0.000 -2.510 -0.000 0.000
2532 2530 2533 2536 3 0.628 1.883 0.000 -2.510 -0.000 0.000
2533 2536 2539 2540 3 0.628 1.883 0.000 -2.510 -0.000 0.000
2533 2536 2539 2541 3 0.628 1.883 0.000 -2.510 -0.000 0.000
2533 2536 2539 2542 3 2.301 -1.464 0.837 -1.674 -0.000 0.000
2534 2533 2536 2537 3 0.628 1.883 0.000 -2.510 -0.000 0.000
2534 2533 2536 2538 3 0.628 1.883 0.000 -2.510 -0.000 0.000
2534 2533 2536 2539 3 0.628 1.883 0.000 -2.510 -0.000 0.000
2535 2533 2536 2537 3 0.628 1.883 0.000 -2.510 -0.000 0.000
2535 2533 2536 2538 3 0.628 1.883 0.000 -2.510 -0.000 0.000
2535 2533 2536 2539 3 0.628 1.883 0.000 -2.510 -0.000 0.000
2536 2539 2542 2543 3 0.628 1.883 0.000 -2.510 -0.000 0.000
2536 2539 2542 2544 3 0.628 1.883 0.000 -2.510 -0.000 0.000
2536 2539 2542 2545 3 2.301 -1.464 0.837 -1.674 -0.000 0.000
2537 2536 2539 2540 3 0.628 1.883 0.000 -2.510 -0.000 0.000
2537 2536 2539 2541 3 0.628 1.883 0.000 -2.510 -0.000 0.000
2537 2536 2539 2542 3 0.628 1.883 0.000 -2.510 -0.000 0.000
2538 2536 2539 2540 3 0.628 1.883 0.000 -2.510 -0.000 0.000
2538 2536 2539 2541 3 0.628 1.883 0.000 -2.510 -0.000 0.000
2538 2536 2539 2542 3 0.628 1.883 0.000 -2.510 -0.000 0.000
2539 2542 2545 2546 3 0.628 1.883 0.000 -2.510 -0.000 0.000
2539 2542 2545 2547 3 0.628 1.883 0.000 -2.510 -0.000 0.000
2539 2542 2545 2548 3 2.301 -1.464 0.837 -1.674 -0.000 0.000
2540 2539 2542 2543 3 0.628 1.883 0.000 -2.510 -0.000 0.000
2540 2539 2542 2544 3 0.628 1.883 0.000 -2.510 -0.000 0.000
2540 2539 2542 2545 3 0.628 1.883 0.000 -2.510 -0.000 0.000
2541 2539 2542 2543 3 0.628 1.883 0.000 -2.510 -0.000 0.000
2541 2539 2542 2544 3 0.628 1.883 0.000 -2.510 -0.000 0.000
2541 2539 2542 2545 3 0.628 1.883 0.000 -2.510 -0.000 0.000
2542 2545 2548 2549 3 0.628 1.883 0.000 -2.510 -0.000 0.000
2542 2545 2548 2550 3 0.628 1.883 0.000 -2.510 -0.000 0.000
2542 2545 2548 2551 3 2.301 -1.464 0.837 -1.674 -0.000 0.000
2543 2542 2545 2546 3 0.628 1.883 0.000 -2.510 -0.000 0.000
2543 2542 2545 2547 3 0.628 1.883 0.000 -2.510 -0.000 0.000
2543 2542 2545 2548 3 0.628 1.883 0.000 -2.510 -0.000 0.000
2544 2542 2545 2546 3 0.628 1.883 0.000 -2.510 -0.000 0.000
2544 2542 2545 2547 3 0.628 1.883 0.000 -2.510 -0.000 0.000
2544 2542 2545 2548 3 0.628 1.883 0.000 -2.510 -0.000 0.000
2545 2548 2551 2552 3 0.628 1.883 0.000 -2.510 -0.000 0.000
2545 2548 2551 2553 3 0.628 1.883 0.000 -2.510 -0.000 0.000
2545 2548 2551 2554 3 2.301 -1.464 0.837 -1.674 -0.000 0.000
2546 2545 2548 2549 3 0.628 1.883 0.000 -2.510 -0.000 0.000
2546 2545 2548 2550 3 0.628 1.883 0.000 -2.510 -0.000 0.000
2546 2545 2548 2551 3 0.628 1.883 0.000 -2.510 -0.000 0.000
2547 2545 2548 2549 3 0.628 1.883 0.000 -2.510 -0.000 0.000
2547 2545 2548 2550 3 0.628 1.883 0.000 -2.510 -0.000 0.000
2547 2545 2548 2551 3 0.628 1.883 0.000 -2.510 -0.000 0.000
2548 2551 2554 2555 3 0.628 1.883 0.000 -2.510 -0.000 0.000
2548 2551 2554 2556 3 0.628 1.883 0.000 -2.510 -0.000 0.000
2548 2551 2554 2557 3 2.301 -1.464 0.837 -1.674 -0.000 0.000
2549 2548 2551 2552 3 0.628 1.883 0.000 -2.510 -0.000 0.000
2549 2548 2551 2553 3 0.628 1.883 0.000 -2.510 -0.000 0.000
2549 2548 2551 2554 3 0.628 1.883 0.000 -2.510 -0.000 0.000
2550 2548 2551 2552 3 0.628 1.883 0.000 -2.510 -0.000 0.000
2550 2548 2551 2553 3 0.628 1.883 0.000 -2.510 -0.000 0.000
2550 2548 2551 2554 3 0.628 1.883 0.000 -2.510 -0.000 0.000
2551 2554 2557 2558 3 0.628 1.883 0.000 -2.510 -0.000 0.000
2551 2554 2557 2559 3 0.628 1.883 0.000 -2.510 -0.000 0.000
2551 2554 2557 2560 3 2.301 -1.464 0.837 -1.674 -0.000 0.000
2552 2551 2554 2555 3 0.628 1.883 0.000 -2.510 -0.000 0.000
2552 2551 2554 2556 3 0.628 1.883 0.000 -2.510 -0.000 0.000
2552 2551 2554 2557 3 0.628 1.883 0.000 -2.510 -0.000 0.000
2553 2551 2554 2555 3 0.628 1.883 0.000 -2.510 -0.000 0.000
2553 2551 2554 2556 3 0.628 1.883 0.000 -2.510 -0.000 0.000
2553 2551 2554 2557 3 0.628 1.883 0.000 -2.510 -0.000 0.000
2554 2557 2560 2561 3 0.628 1.883 0.000 -2.510 -0.000 0.000
2554 2557 2560 2562 3 0.628 1.883 0.000 -2.510 -0.000 0.000
2554 2557 2560 2563 3 2.301 -1.464 0.837 -1.674 -0.000 0.000
2555 2554 2557 2558 3 0.628 1.883 0.000 -2.510 -0.000 0.000
2555 2554 2557 2559 3 0.628 1.883 0.000 -2.510 -0.000 0.000
2555 2554 2557 2560 3 0.628 1.883 0.000 -2.510 -0.000 0.000
2556 2554 2557 2558 3 0.628 1.883 0.000 -2.510 -0.000 0.000
2556 2554 2557 2559 3 0.628 1.883 0.000 -2.510 -0.000 0.000
2556 2554 2557 2560 3 0.628 1.883 0.000 -2.510 -0.000 0.000
2557 2560 2563 2564 3 0.628 1.883 0.000 -2.510 -0.000 0.000
2557 2560 2563 2565 3 0.628 1.883 0.000 -2.510 -0.000 0.000
2557 2560 2563 2566 3 2.301 -1.464 0.837 -1.674 -0.000 0.000
2558 2557 2560 2561 3 0.628 1.883 0.000 -2.510 -0.000 0.000
2558 2557 2560 2562 3 0.628 1.883 0.000 -2.510 -0.000 0.000
2558 2557 2560 2563 3 0.628 1.883 0.000 -2.510 -0.000 0.000
2559 2557 2560 2561 3 0.628 1.883 0.000 -2.510 -0.000 0.000
2559 2557 2560 2562 3 0.628 1.883 0.000 -2.510 -0.000 0.000
2559 2557 2560 2563 3 0.628 1.883 0.000 -2.510 -0.000 0.000
2560 2563 2566 2567 3 0.628 1.883 0.000 -2.510 -0.000 0.000
2560 2563 2566 2568 3 0.628 1.883 0.000 -2.510 -0.000 0.000
2560 2563 2566 2569 3 2.301 -1.464 0.837 -1.674 -0.000 0.000
2561 2560 2563 2564 3 0.628 1.883 0.000 -2.510 -0.000 0.000
2561 2560 2563 2565 3 0.628 1.883 0.000 -2.510 -0.000 0.000
2561 2560 2563 2566 3 0.628 1.883 0.000 -2.510 -0.000 0.000
2562 2560 2563 2564 3 0.628 1.883 0.000 -2.510 -0.000 0.000
2562 2560 2563 2565 3 0.628 1.883 0.000 -2.510 -0.000 0.000
2562 2560 2563 2566 3 0.628 1.883 0.000 -2.510 -0.000 0.000
2563 2566 2569 2570 3 0.628 1.883 0.000 -2.510 -0.000 0.000
2563 2566 2569 2571 3 0.628 1.883 0.000 -2.510 -0.000 0.000
2563 2566 2569 2572 3 0.628 1.883 0.000 -2.510 -0.000 0.000
2564 2563 2566 2567 3 0.628 1.883 0.000 -2.510 -0.000 0.000
2564 2563 2566 2568 3 0.628 1.883 0.000 -2.510 -0.000 0.000
2564 2563 2566 2569 3 0.628 1.883 0.000 -2.510 -0.000 0.000
2565 2563 2566 2567 3 0.628 1.883 0.000 -2.510 -0.000 0.000
2565 2563 2566 2568 3 0.628 1.883 0.000 -2.510 -0.000 0.000
2565 2563 2566 2569 3 0.628 1.883 0.000 -2.510 -0.000 0.000
2567 2566 2569 2570 3 0.628 1.883 0.000 -2.510 -0.000 0.000
2567 2566 2569 2571 3 0.628 1.883 0.000 -2.510 -0.000 0.000
2567 2566 2569 2572 3 0.628 1.883 0.000 -2.510 -0.000 0.000
2568 2566 2569 2570 3 0.628 1.883 0.000 -2.510 -0.000 0.000
2568 2566 2569 2571 3 0.628 1.883 0.000 -2.510 -0.000 0.000
2568 2566 2569 2572 3 0.628 1.883 0.000 -2.510 -0.000 0.000
2573 2574 2577 2578 3 -0.778 -2.335 0.000 3.113 -0.000 0.000
2573 2574 2577 2581 3 -0.778 -2.335 0.000 3.113 -0.000 0.000
2574 2577 2578 2579 3 58.576 0.000 -58.576 -0.000 -0.000 0.000
2574 2577 2578 2580 3 58.576 0.000 -58.576 -0.000 -0.000 0.000
2574 2577 2578 2613 3 2.928800 -1.464400 0.209200 -1.673600 0.000000 0.000000
2574 2577 2581 2582 3 1.789 -5.052 -0.962 4.226 -0.000 0.000
2574 2577 2581 2583 3 1.789 -5.052 -0.962 4.226 -0.000 0.000
2575 2574 2577 2578 3 -0.778 -2.335 0.000 3.113 -0.000 0.000
2575 2574 2577 2581 3 -0.778 -2.335 0.000 3.113 -0.000 0.000
2576 2574 2577 2578 3 -0.778 -2.335 0.000 3.113 -0.000 0.000
2576 2574 2577 2581 3 -0.778 -2.335 0.000 3.113 -0.000 0.000
2578 2574 2577 2581 4 180.000 10.460 2
2577 2578 2613 2610 3 2.928800 -1.464400 0.209200 -1.673600 0.000000 0.000000
2577 2578 2613 2614 3 2.928800 -1.464400 0.209200 -1.673600 0.000000 0.000000
2577 2578 2613 2617 3 2.928800 -1.464400 0.209200 -1.673600 0.000000 0.000000
2577 2581 2583 2584 3 31.206 -9.768 -21.439 -0.000 -0.000 0.000
2578 2577 2581 2582 3 30.334 -5.230 -25.104 -0.000 -0.000 0.000
2578 2577 2581 2583 3 -5.858 -6.694 12.552 -0.000 -0.000 0.000
2579 2577 2578 2580 4 180.000 10.460 2
2581 2577 2578 2579 3 58.576 0.000 -58.576 -0.000 -0.000 0.000
2581 2577 2578 2580 3 58.576 0.000 -58.576 -0.000 -0.000 0.000
2581 2577 2578 2613 3 2.928800 -1.464400 0.209200 -1.673600 0.000000 0.000000
2582 2577 2581 2583 4 180.000 43.932 2
2578 2613 2614 2615 3 0.627600 1.882800 0.000000 -2.510400 0.000000 0.000000
2578 2613 2614 2616 3 0.627600 1.882800 0.000000 -2.510400 0.000000 0.000000
2578 2613 2614 2679 3 2.928800 -1.464400 0.209200 -1.673600 0.000000 0.000000
2578 2613 2617 2618 3 2.874410 0.581580 2.092000 -5.547990 0.000000 0.000000
2578 2613 2617 2619 3 2.874410 0.581580 2.092000 -5.547990 0.000000 0.000000
2579 2578 2613 2610 3 0.627600 1.882800 0.000000 -2.510400 0.000000 0.000000
2579 2578 2613 2614 3 0.627600 1.882800 0.000000 -2.510400 0.000000 0.000000
2579 2578 2613 2617 3 0.627600 1.882800 0.000000 -2.510400 0.000000 0.000000
2580 2578 2613 2610 3 0.627600 1.882800 0.000000 -2.510400 0.000000 0.000000
2580 2578 2613 2614 3 0.627600 1.882800 0.000000 -2.510400 0.000000 0.000000
2580 2578 2613 2617 3 0.627600 1.882800 0.000000 -2.510400 0.000000 0.000000
2609 2610 2613 2578 3 0.627600 1.882800 0.000000 -2.510400 0.000000 0.000000
2611 2610 2613 2578 3 0.627600 1.882800 0.000000 -2.510400 0.000000 0.000000
2612 2610 2613 2578 3 0.627600 1.882800 0.000000 -2.510400 0.000000 0.000000
2581 2583 2584 2585 3 0.414 1.243 0.000 -1.657 -0.000 0.000
2581 2583 2584 2586 3 0.414 1.243 0.000 -1.657 -0.000 0.000
2581 2583 2584 2587 3 -2.197 5.201 0.527 -3.531 -0.000 0.000
2582 2581 2583 2584 3 21.439 0.000 -21.439 -0.000 -0.000 0.000
2583 2584 2587 2588 3 0.979 2.937 0.000 -3.916 -0.000 0.000
2583 2584 2587 2589 3 2.874 0.582 2.092 -5.548 -0.000 0.000
2583 2584 2587 2596 3 2.874 0.582 2.092 -5.548 -0.000 0.000
2584 2587 2589 2590 3 0.628 1.883 0.000 -2.510 -0.000 0.000
2584 2587 2589 2591 3 0.628 1.883 0.000 -2.510 -0.000 0.000
2584 2587 2589 2592 3 2.301 -1.464 0.837 -1.674 -0.000 0.000
2584 2587 2596 2597 3 0.628 1.883 0.000 -2.510 -0.000 0.000
2584 2587 2596 2598 3 0.628 1.883 0.000 -2.510 -0.000 0.000
2584 2587 2596 2599 3 2.301 -1.464 0.837 -1.674 -0.000 0.000
2585 2584 2587 2588 3 0.628 1.883 0.000 -2.510 -0.000 0.000
2585 2584 2587 2589 3 0.628 1.883 0.000 -2.510 -0.000 0.000
2585 2584 2587 2596 3 0.628 1.883 0.000 -2.510 -0.000 0.000
2586 2584 2587 2588 3 0.628 1.883 0.000 -2.510 -0.000 0.000
2586 2584 2587 2589 3 0.628 1.883 0.000 -2.510 -0.000 0.000
2586 2584 2587 2596 3 0.628 1.883 0.000 -2.510 -0.000 0.000
2587 2589 2592 2593 3 0.628 1.883 0.000 -2.510 -0.000 0.000
2587 2589 2592 2594 3 0.628 1.883 0.000 -2.510 -0.000 0.000
2587 2589 2592 2595 3 0.628 1.883 0.000 -2.510 -0.000 0.000
2587 2596 2599 2600 3 0.628 1.883 0.000 -2.510 -0.000 0.000
2587 2596 2599 2601 3 0.628 1.883 0.000 -2.510 -0.000 0.000
2587 2596 2599 2602 3 2.301 -1.464 0.837 -1.674 -0.000 0.000
2588 2587 2589 2590 3 0.628 1.883 0.000 -2.510 -0.000 0.000
2588 2587 2589 2591 3 0.628 1.883 0.000 -2.510 -0.000 0.000
2588 2587 2589 2592 3 0.628 1.883 0.000 -2.510 -0.000 0.000
2588 2587 2596 2597 3 0.628 1.883 0.000 -2.510 -0.000 0.000
2588 2587 2596 2598 3 0.628 1.883 0.000 -2.510 -0.000 0.000
2588 2587 2596 2599 3 0.628 1.883 0.000 -2.510 -0.000 0.000
2589 2587 2596 2597 3 0.628 1.883 0.000 -2.510 -0.000 0.000
2589 2587 2596 2598 3 0.628 1.883 0.000 -2.510 -0.000 0.000
2589 2587 2596 2599 3 2.301 -1.464 0.837 -1.674 -0.000 0.000
2596 2587 2589 2590 3 0.628 1.883 0.000 -2.510 -0.000 0.000
2596 2587 2589 2591 3 0.628 1.883 0.000 -2.510 -0.000 0.000
2596 2587 2589 2592 3 2.301 -1.464 0.837 -1.674 -0.000 0.000
2590 2589 2592 2593 3 0.628 1.883 0.000 -2.510 -0.000 0.000
2590 2589 2592 2594 3 0.628 1.883 0.000 -2.510 -0.000 0.000
2590 2589 2592 2595 3 0.628 1.883 0.000 -2.510 -0.000 0.000
2591 2589 2592 2593 3 0.628 1.883 0.000 -2.510 -0.000 0.000
2591 2589 2592 2594 3 0.628 1.883 0.000 -2.510 -0.000 0.000
2591 2589 2592 2595 3 0.628 1.883 0.000 -2.510 -0.000 0.000
2596 2599 2602 2603 3 0.628 1.883 0.000 -2.510 -0.000 0.000
2596 2599 2602 2604 3 0.628 1.883 0.000 -2.510 -0.000 0.000
2596 2599 2602 2605 3 2.301 -1.464 0.837 -1.674 -0.000 0.000
2597 2596 2599 2600 3 0.628 1.883 0.000 -2.510 -0.000 0.000
2597 2596 2599 2601 3 0.628 1.883 0.000 -2.510 -0.000 0.000
2597 2596 2599 2602 3 0.628 1.883 0.000 -2.510 -0.000 0.000
2598 2596 2599 2600 3 0.628 1.883 0.000 -2.510 -0.000 0.000
2598 2596 2599 2601 3 0.628 1.883 0.000 -2.510 -0.000 0.000
2598 2596 2599 2602 3 0.628 1.883 0.000 -2.510 -0.000 0.000
2599 2602 2605 2606 3 0.628 1.883 0.000 -2.510 -0.000 0.000
2599 2602 2605 2607 3 0.628 1.883 0.000 -2.510 -0.000 0.000
2599 2602 2605 2608 3 0.628 1.883 0.000 -2.510 -0.000 0.000
2600 2599 2602 2603 3 0.628 1.883 0.000 -2.510 -0.000 0.000
2600 2599 2602 2604 3 0.628 1.883 0.000 -2.510 -0.000 0.000
2600 2599 2602 2605 3 0.628 1.883 0.000 -2.510 -0.000 0.000
2601 2599 2602 2603 3 0.628 1.883 0.000 -2.510 -0.000 0.000
2601 2599 2602 2604 3 0.628 1.883 0.000 -2.510 -0.000 0.000
2601 2599 2602 2605 3 0.628 1.883 0.000 -2.510 -0.000 0.000
2603 2602 2605 2606 3 0.628 1.883 0.000 -2.510 -0.000 0.000
2603 2602 2605 2607 3 0.628 1.883 0.000 -2.510 -0.000 0.000
2603 2602 2605 2608 3 0.628 1.883 0.000 -2.510 -0.000 0.000
2604 2602 2605 2606 3 0.628 1.883 0.000 -2.510 -0.000 0.000
2604 2602 2605 2607 3 0.628 1.883 0.000 -2.510 -0.000 0.000
2604 2602 2605 2608 3 0.628 1.883 0.000 -2.510 -0.000 0.000
2609 2610 2613 2614 3 -0.778 -2.335 0.000 3.113 -0.000 0.000
2609 2610 2613 2617 3 -0.778 -2.335 0.000 3.113 -0.000 0.000
2610 2613 2614 2615 3 58.576 0.000 -58.576 -0.000 -0.000 0.000
2610 2613 2614 2616 3 58.576 0.000 -58.576 -0.000 -0.000 0.000
2610 2613 2614 2679 3 2.928800 -1.464400 0.209200 -1.673600 0.000000 0.000000
2610 2613 2617 2618 3 1.789 -5.052 -0.962 4.226 -0.000 0.000
2610 2613 2617 2619 3 1.789 -5.052 -0.962 4.226 -0.000 0.000
2611 2610 2613 2614 3 -0.778 -2.335 0.000 3.113 -0.000 0.000
2611 2610 2613 2617 3 -0.778 -2.335 0.000 3.113 -0.000 0.000
2612 2610 2613 2614 3 -0.778 -2.335 0.000 3.113 -0.000 0.000
2612 2610 2613 2617 3 -0.778 -2.335 0.000 3.113 -0.000 0.000
2614 2610 2613 2617 4 180.000 10.460 2
2613 2614 2679 2676 3 2.928800 -1.464400 0.209200 -1.673600 0.000000 0.000000
2613 2614 2679 2680 3 2.928800 -1.464400 0.209200 -1.673600 0.000000 0.000000
2613 2614 2679 2683 3 2.928800 -1.464400 0.209200 -1.673600 0.000000 0.000000
2613 2617 2619 2620 3 31.206 -9.768 -21.439 -0.000 -0.000 0.000
2614 2613 2617 2618 3 30.334 -5.230 -25.104 -0.000 -0.000 0.000
2614 2613 2617 2619 3 -5.858 -6.694 12.552 -0.000 -0.000 0.000
2615 2613 2614 2616 4 180.000 10.460 2
2617 2613 2614 2615 3 58.576 0.000 -58.576 -0.000 -0.000 0.000
2617 2613 2614 2616 3 58.576 0.000 -58.576 -0.000 -0.000 0.000
2617 2613 2614 2679 3 2.928800 -1.464400 0.209200 -1.673600 0.000000 0.000000
2618 2613 2617 2619 4 180.000 43.932 2
2614 2679 2680 2681 3 0.627600 1.882800 0.000000 -2.510400 0.000000 0.000000
2614 2679 2680 2682 3 0.627600 1.882800 0.000000 -2.510400 0.000000 0.000000
2614 2679 2680 2715 3 2.928800 -1.464400 0.209200 -1.673600 0.000000 0.000000
2614 2679 2683 2684 3 2.874410 0.581580 2.092000 -5.547990 0.000000 0.000000
2614 2679 2683 2685 3 2.874410 0.581580 2.092000 -5.547990 0.000000 0.000000
2615 2614 2679 2676 3 0.627600 1.882800 0.000000 -2.510400 0.000000 0.000000
2615 2614 2679 2680 3 0.627600 1.882800 0.000000 -2.510400 0.000000 0.000000
2615 2614 2679 2683 3 0.627600 1.882800 0.000000 -2.510400 0.000000 0.000000
2616 2614 2679 2676 3 0.627600 1.882800 0.000000 -2.510400 0.000000 0.000000
2616 2614 2679 2680 3 0.627600 1.882800 0.000000 -2.510400 0.000000 0.000000
2616 2614 2679 2683 3 0.627600 1.882800 0.000000 -2.510400 0.000000 0.000000
2675 2676 2679 2614 3 0.627600 1.882800 0.000000 -2.510400 0.000000 0.000000
2677 2676 2679 2614 3 0.627600 1.882800 0.000000 -2.510400 0.000000 0.000000
2678 2676 2679 2614 3 0.627600 1.882800 0.000000 -2.510400 0.000000 0.000000
2617 2619 2620 2621 3 0.414 1.243 0.000 -1.657 -0.000 0.000
2617 2619 2620 2622 3 0.414 1.243 0.000 -1.657 -0.000 0.000
2617 2619 2620 2623 3 -2.197 5.201 0.527 -3.531 -0.000 0.000
2618 2617 2619 2620 3 21.439 0.000 -21.439 -0.000 -0.000 0.000
2619 2620 2623 2624 3 0.979 2.937 0.000 -3.916 -0.000 0.000
2619 2620 2623 2625 3 0.979 2.937 0.000 -3.916 -0.000 0.000
2619 2620 2623 2626 3 2.874 0.582 2.092 -5.548 -0.000 0.000
2620 2623 2626 2627 3 0.628 1.883 0.000 -2.510 -0.000 0.000
2620 2623 2626 2628 3 0.628 1.883 0.000 -2.510 -0.000 0.000
2620 2623 2626 2629 3 2.301 -1.464 0.837 -1.674 -0.000 0.000
2621 2620 2623 2624 3 0.628 1.883 0.000 -2.510 -0.000 0.000
2621 2620 2623 2625 3 0.628 1.883 0.000 -2.510 -0.000 0.000
2621 2620 2623 2626 3 0.628 1.883 0.000 -2.510 -0.000 0.000
2622 2620 2623 2624 3 0.628 1.883 0.000 -2.510 -0.000 0.000
2622 2620 2623 2625 3 0.628 1.883 0.000 -2.510 -0.000 0.000
2622 2620 2623 2626 3 0.628 1.883 0.000 -2.510 -0.000 0.000
2623 2626 2629 2630 3 0.628 1.883 0.000 -2.510 -0.000 0.000
2623 2626 2629 2631 3 0.628 1.883 0.000 -2.510 -0.000 0.000
2623 2626 2629 2632 3 2.301 -1.464 0.837 -1.674 -0.000 0.000
2624 2623 2626 2627 3 0.628 1.883 0.000 -2.510 -0.000 0.000
2624 2623 2626 2628 3 0.628 1.883 0.000 -2.510 -0.000 0.000
2624 2623 2626 2629 3 0.628 1.883 0.000 -2.510 -0.000 0.000
2625 2623 2626 2627 3 0.628 1.883 0.000 -2.510 -0.000 0.000
2625 2623 2626 2628 3 0.628 1.883 0.000 -2.510 -0.000 0.000
2625 2623 2626 2629 3 0.628 1.883 0.000 -2.510 -0.000 0.000
2626 2629 2632 2633 3 0.628 1.883 0.000 -2.510 -0.000 0.000
2626 2629 2632 2634 3 0.628 1.883 0.000 -2.510 -0.000 0.000
2626 2629 2632 2635 3 2.301 -1.464 0.837 -1.674 -0.000 0.000
2627 2626 2629 2630 3 0.628 1.883 0.000 -2.510 -0.000 0.000
2627 2626 2629 2631 3 0.628 1.883 0.000 -2.510 -0.000 0.000
2627 2626 2629 2632 3 0.628 1.883 0.000 -2.510 -0.000 0.000
2628 2626 2629 2630 3 0.628 1.883 0.000 -2.510 -0.000 0.000
2628 2626 2629 2631 3 0.628 1.883 0.000 -2.510 -0.000 0.000
2628 2626 2629 2632 3 0.628 1.883 0.000 -2.510 -0.000 0.000
2629 2632 2635 2636 3 0.628 1.883 0.000 -2.510 -0.000 0.000
2629 2632 2635 2637 3 0.628 1.883 0.000 -2.510 -0.000 0.000
2629 2632 2635 2638 3 2.301 -1.464 0.837 -1.674 -0.000 0.000
2630 2629 2632 2633 3 0.628 1.883 0.000 -2.510 -0.000 0.000
2630 2629 2632 2634 3 0.628 1.883 0.000 -2.510 -0.000 0.000
2630 2629 2632 2635 3 0.628 1.883 0.000 -2.510 -0.000 0.000
2631 2629 2632 2633 3 0.628 1.883 0.000 -2.510 -0.000 0.000
2631 2629 2632 2634 3 0.628 1.883 0.000 -2.510 -0.000 0.000
2631 2629 2632 2635 3 0.628 1.883 0.000 -2.510 -0.000 0.000
2632 2635 2638 2639 3 0.628 1.883 0.000 -2.510 -0.000 0.000
2632 2635 2638 2640 3 0.628 1.883 0.000 -2.510 -0.000 0.000
2632 2635 2638 2641 3 2.301 -1.464 0.837 -1.674 -0.000 0.000
2633 2632 2635 2636 3 0.628 1.883 0.000 -2.510 -0.000 0.000
2633 2632 2635 2637 3 0.628 1.883 0.000 -2.510 -0.000 0.000
2633 2632 2635 2638 3 0.628 1.883 0.000 -2.510 -0.000 0.000
2634 2632 2635 2636 3 0.628 1.883 0.000 -2.510 -0.000 0.000
2634 2632 2635 2637 3 0.628 1.883 0.000 -2.510 -0.000 0.000
2634 2632 2635 2638 3 0.628 1.883 0.000 -2.510 -0.000 0.000
2635 2638 2641 2642 3 0.628 1.883 0.000 -2.510 -0.000 0.000
2635 2638 2641 2643 3 0.628 1.883 0.000 -2.510 -0.000 0.000
2635 2638 2641 2644 3 2.301 -1.464 0.837 -1.674 -0.000 0.000
2636 2635 2638 2639 3 0.628 1.883 0.000 -2.510 -0.000 0.000
2636 2635 2638 2640 3 0.628 1.883 0.000 -2.510 -0.000 0.000
2636 2635 2638 2641 3 0.628 1.883 0.000 -2.510 -0.000 0.000
2637 2635 2638 2639 3 0.628 1.883 0.000 -2.510 -0.000 0.000
2637 2635 2638 2640 3 0.628 1.883 0.000 -2.510 -0.000 0.000
2637 2635 2638 2641 3 0.628 1.883 0.000 -2.510 -0.000 0.000
2638 2641 2644 2645 3 0.628 1.883 0.000 -2.510 -0.000 0.000
2638 2641 2644 2646 3 0.628 1.883 0.000 -2.510 -0.000 0.000
2638 2641 2644 2647 3 2.301 -1.464 0.837 -1.674 -0.000 0.000
2639 2638 2641 2642 3 0.628 1.883 0.000 -2.510 -0.000 0.000
2639 2638 2641 2643 3 0.628 1.883 0.000 -2.510 -0.000 0.000
2639 2638 2641 2644 3 0.628 1.883 0.000 -2.510 -0.000 0.000
2640 2638 2641 2642 3 0.628 1.883 0.000 -2.510 -0.000 0.000
2640 2638 2641 2643 3 0.628 1.883 0.000 -2.510 -0.000 0.000
2640 2638 2641 2644 3 0.628 1.883 0.000 -2.510 -0.000 0.000
2641 2644 2647 2648 3 0.628 1.883 0.000 -2.510 -0.000 0.000
2641 2644 2647 2649 3 0.628 1.883 0.000 -2.510 -0.000 0.000
2641 2644 2647 2650 3 2.301 -1.464 0.837 -1.674 -0.000 0.000
2642 2641 2644 2645 3 0.628 1.883 0.000 -2.510 -0.000 0.000
2642 2641 2644 2646 3 0.628 1.883 0.000 -2.510 -0.000 0.000
2642 2641 2644 2647 3 0.628 1.883 0.000 -2.510 -0.000 0.000
2643 2641 2644 2645 3 0.628 1.883 0.000 -2.510 -0.000 0.000
2643 2641 2644 2646 3 0.628 1.883 0.000 -2.510 -0.000 0.000
2643 2641 2644 2647 3 0.628 1.883 0.000 -2.510 -0.000 0.000
2644 2647 2650 2651 3 0.628 1.883 0.000 -2.510 -0.000 0.000
2644 2647 2650 2652 3 0.628 1.883 0.000 -2.510 -0.000 0.000
2644 2647 2650 2653 3 2.301 -1.464 0.837 -1.674 -0.000 0.000
2645 2644 2647 2648 3 0.628 1.883 0.000 -2.510 -0.000 0.000
2645 2644 2647 2649 3 0.628 1.883 0.000 -2.510 -0.000 0.000
2645 2644 2647 2650 3 0.628 1.883 0.000 -2.510 -0.000 0.000
2646 2644 2647 2648 3 0.628 1.883 0.000 -2.510 -0.000 0.000
2646 2644 2647 2649 3 0.628 1.883 0.000 -2.510 -0.000 0.000
2646 2644 2647 2650 3 0.628 1.883 0.000 -2.510 -0.000 0.000
2647 2650 2653 2654 3 0.628 1.883 0.000 -2.510 -0.000 0.000
2647 2650 2653 2655 3 0.628 1.883 0.000 -2.510 -0.000 0.000
2647 2650 2653 2656 3 2.301 -1.464 0.837 -1.674 -0.000 0.000
2648 2647 2650 2651 3 0.628 1.883 0.000 -2.510 -0.000 0.000
2648 2647 2650 2652 3 0.628 1.883 0.000 -2.510 -0.000 0.000
2648 2647 2650 2653 3 0.628 1.883 0.000 -2.510 -0.000 0.000
2649 2647 2650 2651 3 0.628 1.883 0.000 -2.510 -0.000 0.000
2649 2647 2650 2652 3 0.628 1.883 0.000 -2.510 -0.000 0.000
2649 2647 2650 2653 3 0.628 1.883 0.000 -2.510 -0.000 0.000
2650 2653 2656 2657 3 0.628 1.883 0.000 -2.510 -0.000 0.000
2650 2653 2656 2658 3 0.628 1.883 0.000 -2.510 -0.000 0.000
2650 2653 2656 2659 3 2.301 -1.464 0.837 -1.674 -0.000 0.000
2651 2650 2653 2654 3 0.628 1.883 0.000 -2.510 -0.000 0.000
2651 2650 2653 2655 3 0.628 1.883 0.000 -2.510 -0.000 0.000
2651 2650 2653 2656 3 0.628 1.883 0.000 -2.510 -0.000 0.000
2652 2650 2653 2654 3 0.628 1.883 0.000 -2.510 -0.000 0.000
2652 2650 2653 2655 3 0.628 1.883 0.000 -2.510 -0.000 0.000
2652 2650 2653 2656 3 0.628 1.883 0.000 -2.510 -0.000 0.000
2653 2656 2659 2660 3 0.628 1.883 0.000 -2.510 -0.000 0.000
2653 2656 2659 2661 3 0.628 1.883 0.000 -2.510 -0.000 0.000
2653 2656 2659 2662 3 2.301 -1.464 0.837 -1.674 -0.000 0.000
2654 2653 2656 2657 3 0.628 1.883 0.000 -2.510 -0.000 0.000
2654 2653 2656 2658 3 0.628 1.883 0.000 -2.510 -0.000 0.000
2654 2653 2656 2659 3 0.628 1.883 0.000 -2.510 -0.000 0.000
2655 2653 2656 2657 3 0.628 1.883 0.000 -2.510 -0.000 0.000
2655 2653 2656 2658 3 0.628 1.883 0.000 -2.510 -0.000 0.000
2655 2653 2656 2659 3 0.628 1.883 0.000 -2.510 -0.000 0.000
2656 2659 2662 2663 3 0.628 1.883 0.000 -2.510 -0.000 0.000
2656 2659 2662 2664 3 0.628 1.883 0.000 -2.510 -0.000 0.000
2656 2659 2662 2665 3 2.301 -1.464 0.837 -1.674 -0.000 0.000
2657 2656 2659 2660 3 0.628 1.883 0.000 -2.510 -0.000 0.000
2657 2656 2659 2661 3 0.628 1.883 0.000 -2.510 -0.000 0.000
2657 2656 2659 2662 3 0.628 1.883 0.000 -2.510 -0.000 0.000
2658 2656 2659 2660 3 0.628 1.883 0.000 -2.510 -0.000 0.000
2658 2656 2659 2661 3 0.628 1.883 0.000 -2.510 -0.000 0.000
2658 2656 2659 2662 3 0.628 1.883 0.000 -2.510 -0.000 0.000
2659 2662 2665 2666 3 0.628 1.883 0.000 -2.510 -0.000 0.000
2659 2662 2665 2667 3 0.628 1.883 0.000 -2.510 -0.000 0.000
2659 2662 2665 2668 3 2.301 -1.464 0.837 -1.674 -0.000 0.000
2660 2659 2662 2663 3 0.628 1.883 0.000 -2.510 -0.000 0.000
2660 2659 2662 2664 3 0.628 1.883 0.000 -2.510 -0.000 0.000
2660 2659 2662 2665 3 0.628 1.883 0.000 -2.510 -0.000 0.000
2661 2659 2662 2663 3 0.628 1.883 0.000 -2.510 -0.000 0.000
2661 2659 2662 2664 3 0.628 1.883 0.000 -2.510 -0.000 0.000
2661 2659 2662 2665 3 0.628 1.883 0.000 -2.510 -0.000 0.000
2662 2665 2668 2669 3 0.628 1.883 0.000 -2.510 -0.000 0.000
2662 2665 2668 2670 3 0.628 1.883 0.000 -2.510 -0.000 0.000
2662 2665 2668 2671 3 2.301 -1.464 0.837 -1.674 -0.000 0.000
2663 2662 2665 2666 3 0.628 1.883 0.000 -2.510 -0.000 0.000
2663 2662 2665 2667 3 0.628 1.883 0.000 -2.510 -0.000 0.000
2663 2662 2665 2668 3 0.628 1.883 0.000 -2.510 -0.000 0.000
2664 2662 2665 2666 3 0.628 1.883 0.000 -2.510 -0.000 0.000
2664 2662 2665 2667 3 0.628 1.883 0.000 -2.510 -0.000 0.000
2664 2662 2665 2668 3 0.628 1.883 0.000 -2.510 -0.000 0.000
2665 2668 2671 2672 3 0.628 1.883 0.000 -2.510 -0.000 0.000
2665 2668 2671 2673 3 0.628 1.883 0.000 -2.510 -0.000 0.000
2665 2668 2671 2674 3 0.628 1.883 0.000 -2.510 -0.000 0.000
2666 2665 2668 2669 3 0.628 1.883 0.000 -2.510 -0.000 0.000
2666 2665 2668 2670 3 0.628 1.883 0.000 -2.510 -0.000 0.000
2666 2665 2668 2671 3 0.628 1.883 0.000 -2.510 -0.000 0.000
2667 2665 2668 2669 3 0.628 1.883 0.000 -2.510 -0.000 0.000
2667 2665 2668 2670 3 0.628 1.883 0.000 -2.510 -0.000 0.000
2667 2665 2668 2671 3 0.628 1.883 0.000 -2.510 -0.000 0.000
2669 2668 2671 2672 3 0.628 1.883 0.000 -2.510 -0.000 0.000
2669 2668 2671 2673 3 0.628 1.883 0.000 -2.510 -0.000 0.000
2669 2668 2671 2674 3 0.628 1.883 0.000 -2.510 -0.000 0.000
2670 2668 2671 2672 3 0.628 1.883 0.000 -2.510 -0.000 0.000
2670 2668 2671 2673 3 0.628 1.883 0.000 -2.510 -0.000 0.000
2670 2668 2671 2674 3 0.628 1.883 0.000 -2.510 -0.000 0.000
2675 2676 2679 2680 3 -0.778 -2.335 0.000 3.113 -0.000 0.000
2675 2676 2679 2683 3 -0.778 -2.335 0.000 3.113 -0.000 0.000
2676 2679 2680 2681 3 58.576 0.000 -58.576 -0.000 -0.000 0.000
2676 2679 2680 2682 3 58.576 0.000 -58.576 -0.000 -0.000 0.000
2676 2679 2680 2715 3 2.928800 -1.464400 0.209200 -1.673600 0.000000 0.000000
2676 2679 2683 2684 3 1.789 -5.052 -0.962 4.226 -0.000 0.000
2676 2679 2683 2685 3 1.789 -5.052 -0.962 4.226 -0.000 0.000
2677 2676 2679 2680 3 -0.778 -2.335 0.000 3.113 -0.000 0.000
2677 2676 2679 2683 3 -0.778 -2.335 0.000 3.113 -0.000 0.000
2678 2676 2679 2680 3 -0.778 -2.335 0.000 3.113 -0.000 0.000
2678 2676 2679 2683 3 -0.778 -2.335 0.000 3.113 -0.000 0.000
2680 2676 2679 2683 4 180.000 10.460 2
2679 2680 2715 2712 3 2.928800 -1.464400 0.209200 -1.673600 0.000000 0.000000
2679 2680 2715 2716 3 2.928800 -1.464400 0.209200 -1.673600 0.000000 0.000000
2679 2680 2715 2719 3 2.928800 -1.464400 0.209200 -1.673600 0.000000 0.000000
2679 2683 2685 2686 3 31.206 -9.768 -21.439 -0.000 -0.000 0.000
2680 2679 2683 2684 3 30.334 -5.230 -25.104 -0.000 -0.000 0.000
2680 2679 2683 2685 3 -5.858 -6.694 12.552 -0.000 -0.000 0.000
2681 2679 2680 2682 4 180.000 10.460 2
2683 2679 2680 2681 3 58.576 0.000 -58.576 -0.000 -0.000 0.000
2683 2679 2680 2682 3 58.576 0.000 -58.576 -0.000 -0.000 0.000
2683 2679 2680 2715 3 2.928800 -1.464400 0.209200 -1.673600 0.000000 0.000000
2684 2679 2683 2685 4 180.000 43.932 2
2680 2715 2716 2717 3 0.627600 1.882800 0.000000 -2.510400 0.000000 0.000000
2680 2715 2716 2718 3 0.627600 1.882800 0.000000 -2.510400 0.000000 0.000000
2680 2715 2716 2763 3 2.928800 -1.464400 0.209200 -1.673600 0.000000 0.000000
2680 2715 2719 2720 3 2.874410 0.581580 2.092000 -5.547990 0.000000 0.000000
2680 2715 2719 2721 3 2.874410 0.581580 2.092000 -5.547990 0.000000 0.000000
2681 2680 2715 2712 3 0.627600 1.882800 0.000000 -2.510400 0.000000 0.000000
2681 2680 2715 2716 3 0.627600 1.882800 0.000000 -2.510400 0.000000 0.000000
2681 2680 2715 2719 3 0.627600 1.882800 0.000000 -2.510400 0.000000 0.000000
2682 2680 2715 2712 3 0.627600 1.882800 0.000000 -2.510400 0.000000 0.000000
2682 2680 2715 2716 3 0.627600 1.882800 0.000000 -2.510400 0.000000 0.000000
2682 2680 2715 2719 3 0.627600 1.882800 0.000000 -2.510400 0.000000 0.000000
2711 2712 2715 2680 3 0.627600 1.882800 0.000000 -2.510400 0.000000 0.000000
2713 2712 2715 2680 3 0.627600 1.882800 0.000000 -2.510400 0.000000 0.000000
2714 2712 2715 2680 3 0.627600 1.882800 0.000000 -2.510400 0.000000 0.000000
2683 2685 2686 2687 3 0.414 1.243 0.000 -1.657 -0.000 0.000
2683 2685 2686 2688 3 0.414 1.243 0.000 -1.657 -0.000 0.000
2683 2685 2686 2689 3 -2.197 5.201 0.527 -3.531 -0.000 0.000
2684 2683 2685 2686 3 21.439 0.000 -21.439 -0.000 -0.000 0.000
2685 2686 2689 2690 3 0.979 2.937 0.000 -3.916 -0.000 0.000
2685 2686 2689 2691 3 2.874 0.582 2.092 -5.548 -0.000 0.000
2685 2686 2689 2698 3 2.874 0.582 2.092 -5.548 -0.000 0.000
2686 2689 2691 2692 3 0.628 1.883 0.000 -2.510 -0.000 0.000
2686 2689 2691 2693 3 0.628 1.883 0.000 -2.510 -0.000 0.000
2686 2689 2691 2694 3 2.301 -1.464 0.837 -1.674 -0.000 0.000
2686 2689 2698 2699 3 0.628 1.883 0.000 -2.510 -0.000 0.000
2686 2689 2698 2700 3 0.628 1.883 0.000 -2.510 -0.000 0.000
2686 2689 2698 2701 3 2.301 -1.464 0.837 -1.674 -0.000 0.000
2687 2686 2689 2690 3 0.628 1.883 0.000 -2.510 -0.000 0.000
2687 2686 2689 2691 3 0.628 1.883 0.000 -2.510 -0.000 0.000
2687 2686 2689 2698 3 0.628 1.883 0.000 -2.510 -0.000 0.000
2688 2686 2689 2690 3 0.628 1.883 0.000 -2.510 -0.000 0.000
2688 2686 2689 2691 3 0.628 1.883 0.000 -2.510 -0.000 0.000
2688 2686 2689 2698 3 0.628 1.883 0.000 -2.510 -0.000 0.000
2689 2691 2694 2695 3 0.628 1.883 0.000 -2.510 -0.000 0.000
2689 2691 2694 2696 3 0.628 1.883 0.000 -2.510 -0.000 0.000
2689 2691 2694 2697 3 0.628 1.883 0.000 -2.510 -0.000 0.000
2689 2698 2701 2702 3 0.628 1.883 0.000 -2.510 -0.000 0.000
2689 2698 2701 2703 3 0.628 1.883 0.000 -2.510 -0.000 0.000
2689 2698 2701 2704 3 2.301 -1.464 0.837 -1.674 -0.000 0.000
2690 2689 2691 2692 3 0.628 1.883 0.000 -2.510 -0.000 0.000
2690 2689 2691 2693 3 0.628 1.883 0.000 -2.510 -0.000 0.000
2690 2689 2691 2694 3 0.628 1.883 0.000 -2.510 -0.000 0.000
2690 2689 2698 2699 3 0.628 1.883 0.000 -2.510 -0.000 0.000
2690 2689 2698 2700 3 0.628 1.883 0.000 -2.510 -0.000 0.000
2690 2689 2698 2701 3 0.628 1.883 0.000 -2.510 -0.000 0.000
2691 2689 2698 2699 3 0.628 1.883 0.000 -2.510 -0.000 0.000
2691 2689 2698 2700 3 0.628 1.883 0.000 -2.510 -0.000 0.000
2691 2689 2698 2701 3 2.301 -1.464 0.837 -1.674 -0.000 0.000
2698 2689 2691 2692 3 0.628 1.883 0.000 -2.510 -0.000 0.000
2698 2689 2691 2693 3 0.628 1.883 0.000 -2.510 -0.000 0.000
2698 2689 2691 2694 3 2.301 -1.464 0.837 -1.674 -0.000 0.000
2692 2691 2694 2695 3 0.628 1.883 0.000 -2.510 -0.000 0.000
2692 2691 2694 2696 3 0.628 1.883 0.000 -2.510 -0.000 0.000
2692 2691 2694 2697 3 0.628 1.883 0.000 -2.510 -0.000 0.000
2693 2691 2694 2695 3 0.628 1.883 0.000 -2.510 -0.000 0.000
2693 2691 2694 2696 3 0.628 1.883 0.000 -2.510 -0.000 0.000
2693 2691 2694 2697 3 0.628 1.883 0.000 -2.510 -0.000 0.000
2698 2701 2704 2705 3 0.628 1.883 0.000 -2.510 -0.000 0.000
2698 2701 2704 2706 3 0.628 1.883 0.000 -2.510 -0.000 0.000
2698 2701 2704 2707 3 2.301 -1.464 0.837 -1.674 -0.000 0.000
2699 2698 2701 2702 3 0.628 1.883 0.000 -2.510 -0.000 0.000
2699 2698 2701 2703 3 0.628 1.883 0.000 -2.510 -0.000 0.000
2699 2698 2701 2704 3 0.628 1.883 0.000 -2.510 -0.000 0.000
2700 2698 2701 2702 3 0.628 1.883 0.000 -2.510 -0.000 0.000
2700 2698 2701 2703 3 0.628 1.883 0.000 -2.510 -0.000 0.000
2700 2698 2701 2704 3 0.628 1.883 0.000 -2.510 -0.000 0.000
2701 2704 2707 2708 3 0.628 1.883 0.000 -2.510 -0.000 0.000
2701 2704 2707 2709 3 0.628 1.883 0.000 -2.510 -0.000 0.000
2701 2704 2707 2710 3 0.628 1.883 0.000 -2.510 -0.000 0.000
2702 2701 2704 2705 3 0.628 1.883 0.000 -2.510 -0.000 0.000
2702 2701 2704 2706 3 0.628 1.883 0.000 -2.510 -0.000 0.000
2702 2701 2704 2707 3 0.628 1.883 0.000 -2.510 -0.000 0.000
2703 2701 2704 2705 3 0.628 1.883 0.000 -2.510 -0.000 0.000
2703 2701 2704 2706 3 0.628 1.883 0.000 -2.510 -0.000 0.000
2703 2701 2704 2707 3 0.628 1.883 0.000 -2.510 -0.000 0.000
2705 2704 2707 2708 3 0.628 1.883 0.000 -2.510 -0.000 0.000
2705 2704 2707 2709 3 0.628 1.883 0.000 -2.510 -0.000 0.000
2705 2704 2707 2710 3 0.628 1.883 0.000 -2.510 -0.000 0.000
2706 2704 2707 2708 3 0.628 1.883 0.000 -2.510 -0.000 0.000
2706 2704 2707 2709 3 0.628 1.883 0.000 -2.510 -0.000 0.000
2706 2704 2707 2710 3 0.628 1.883 0.000 -2.510 -0.000 0.000
2711 2712 2715 2716 3 -0.778 -2.335 0.000 3.113 -0.000 0.000
2711 2712 2715 2719 3 -0.778 -2.335 0.000 3.113 -0.000 0.000
2712 2715 2716 2717 3 58.576 0.000 -58.576 -0.000 -0.000 0.000
2712 2715 2716 2718 3 58.576 0.000 -58.576 -0.000 -0.000 0.000
2712 2715 2716 2763 3 2.928800 -1.464400 0.209200 -1.673600 0.000000 0.000000
2712 2715 2719 2720 3 1.789 -5.052 -0.962 4.226 -0.000 0.000
2712 2715 2719 2721 3 1.789 -5.052 -0.962 4.226 -0.000 0.000
2713 2712 2715 2716 3 -0.778 -2.335 0.000 3.113 -0.000 0.000
2713 2712 2715 2719 3 -0.778 -2.335 0.000 3.113 -0.000 0.000
2714 2712 2715 2716 3 -0.778 -2.335 0.000 3.113 -0.000 0.000
2714 2712 2715 2719 3 -0.778 -2.335 0.000 3.113 -0.000 0.000
2716 2712 2715 2719 4 180.000 10.460 2
2715 2716 2763 2760 3 2.928800 -1.464400 0.209200 -1.673600 0.000000 0.000000
2715 2716 2763 2764 3 2.928800 -1.464400 0.209200 -1.673600 0.000000 0.000000
2715 2716 2763 2767 3 2.928800 -1.464400 0.209200 -1.673600 0.000000 0.000000
2715 2719 2721 2722 3 31.206 -9.768 -21.439 -0.000 -0.000 0.000
2716 2715 2719 2720 3 30.334 -5.230 -25.104 -0.000 -0.000 0.000
2716 2715 2719 2721 3 -5.858 -6.694 12.552 -0.000 -0.000 0.000
2717 2715 2716 2718 4 180.000 10.460 2
2719 2715 2716 2717 3 58.576 0.000 -58.576 -0.000 -0.000 0.000
2719 2715 2716 2718 3 58.576 0.000 -58.576 -0.000 -0.000 0.000
2719 2715 2716 2763 3 2.928800 -1.464400 0.209200 -1.673600 0.000000 0.000000
2720 2715 2719 2721 4 180.000 43.932 2
2716 2763 2764 2765 3 0.627600 1.882800 0.000000 -2.510400 0.000000 0.000000
2716 2763 2764 2766 3 0.627600 1.882800 0.000000 -2.510400 0.000000 0.000000
2716 2763 2764 2799 3 2.928800 -1.464400 0.209200 -1.673600 0.000000 0.000000
2716 2763 2767 2768 3 2.874410 0.581580 2.092000 -5.547990 0.000000 0.000000
2716 2763 2767 2769 3 2.874410 0.581580 2.092000 -5.547990 0.000000 0.000000
2717 2716 2763 2760 3 0.627600 1.882800 0.000000 -2.510400 0.000000 0.000000
2717 2716 2763 2764 3 0.627600 1.882800 0.000000 -2.510400 0.000000 0.000000
2717 2716 2763 2767 3 0.627600 1.882800 0.000000 -2.510400 0.000000 0.000000
2718 2716 2763 2760 3 0.627600 1.882800 0.000000 -2.510400 0.000000 0.000000
2718 2716 2763 2764 3 0.627600 1.882800 0.000000 -2.510400 0.000000 0.000000
2718 2716 2763 2767 3 0.627600 1.882800 0.000000 -2.510400 0.000000 0.000000
2759 2760 2763 2716 3 0.627600 1.882800 0.000000 -2.510400 0.000000 0.000000
2761 2760 2763 2716 3 0.627600 1.882800 0.000000 -2.510400 0.000000 0.000000
2762 2760 2763 2716 3 0.627600 1.882800 0.000000 -2.510400 0.000000 0.000000
2719 2721 2722 2723 3 0.414 1.243 0.000 -1.657 -0.000 0.000
2719 2721 2722 2724 3 0.414 1.243 0.000 -1.657 -0.000 0.000
2719 2721 2722 2725 3 -2.197 5.201 0.527 -3.531 -0.000 0.000
2720 2719 2721 2722 3 21.439 0.000 -21.439 -0.000 -0.000 0.000
2721 2722 2725 2726 3 0.979 2.937 0.000 -3.916 -0.000 0.000
2721 2722 2725 2727 3 0.979 2.937 0.000 -3.916 -0.000 0.000
2721 2722 2725 2728 3 2.874 0.582 2.092 -5.548 -0.000 0.000
2722 2725 2728 2729 3 0.628 1.883 0.000 -2.510 -0.000 0.000
2722 2725 2728 2730 3 0.628 1.883 0.000 -2.510 -0.000 0.000
2722 2725 2728 2731 3 2.301 -1.464 0.837 -1.674 -0.000 0.000
2723 2722 2725 2726 3 0.628 1.883 0.000 -2.510 -0.000 0.000
2723 2722 2725 2727 3 0.628 1.883 0.000 -2.510 -0.000 0.000
2723 2722 2725 2728 3 0.628 1.883 0.000 -2.510 -0.000 0.000
2724 2722 2725 2726 3 0.628 1.883 0.000 -2.510 -0.000 0.000
2724 2722 2725 2727 3 0.628 1.883 0.000 -2.510 -0.000 0.000
2724 2722 2725 2728 3 0.628 1.883 0.000 -2.510 -0.000 0.000
2725 2728 2731 2732 3 0.628 1.883 0.000 -2.510 -0.000 0.000
2725 2728 2731 2733 3 0.628 1.883 0.000 -2.510 -0.000 0.000
2725 2728 2731 2734 3 2.301 -1.464 0.837 -1.674 -0.000 0.000
2726 2725 2728 2729 3 0.628 1.883 0.000 -2.510 -0.000 0.000
2726 2725 2728 2730 3 0.628 1.883 0.000 -2.510 -0.000 0.000
2726 2725 2728 2731 3 0.628 1.883 0.000 -2.510 -0.000 0.000
2727 2725 2728 2729 3 0.628 1.883 0.000 -2.510 -0.000 0.000
2727 2725 2728 2730 3 0.628 1.883 0.000 -2.510 -0.000 0.000
2727 2725 2728 2731 3 0.628 1.883 0.000 -2.510 -0.000 0.000
2728 2731 2734 2735 3 0.628 1.883 0.000 -2.510 -0.000 0.000
2728 2731 2734 2736 3 0.628 1.883 0.000 -2.510 -0.000 0.000
2728 2731 2734 2737 3 2.301 -1.464 0.837 -1.674 -0.000 0.000
2729 2728 2731 2732 3 0.628 1.883 0.000 -2.510 -0.000 0.000
2729 2728 2731 2733 3 0.628 1.883 0.000 -2.510 -0.000 0.000
2729 2728 2731 2734 3 0.628 1.883 0.000 -2.510 -0.000 0.000
2730 2728 2731 2732 3 0.628 1.883 0.000 -2.510 -0.000 0.000
2730 2728 2731 2733 3 0.628 1.883 0.000 -2.510 -0.000 0.000
2730 2728 2731 2734 3 0.628 1.883 0.000 -2.510 -0.000 0.000
2731 2734 2737 2738 3 0.628 1.883 0.000 -2.510 -0.000 0.000
2731 2734 2737 2739 3 0.628 1.883 0.000 -2.510 -0.000 0.000
2731 2734 2737 2740 3 2.301 -1.464 0.837 -1.674 -0.000 0.000
2732 2731 2734 2735 3 0.628 1.883 0.000 -2.510 -0.000 0.000
2732 2731 2734 2736 3 0.628 1.883 0.000 -2.510 -0.000 0.000
2732 2731 2734 2737 3 0.628 1.883 0.000 -2.510 -0.000 0.000
2733 2731 2734 2735 3 0.628 1.883 0.000 -2.510 -0.000 0.000
2733 2731 2734 2736 3 0.628 1.883 0.000 -2.510 -0.000 0.000
2733 2731 2734 2737 3 0.628 1.883 0.000 -2.510 -0.000 0.000
2734 2737 2740 2741 3 0.628 1.883 0.000 -2.510 -0.000 0.000
2734 2737 2740 2742 3 0.628 1.883 0.000 -2.510 -0.000 0.000
2734 2737 2740 2743 3 2.301 -1.464 0.837 -1.674 -0.000 0.000
2735 2734 2737 2738 3 0.628 1.883 0.000 -2.510 -0.000 0.000
2735 2734 2737 2739 3 0.628 1.883 0.000 -2.510 -0.000 0.000
2735 2734 2737 2740 3 0.628 1.883 0.000 -2.510 -0.000 0.000
2736 2734 2737 2738 3 0.628 1.883 0.000 -2.510 -0.000 0.000
2736 2734 2737 2739 3 0.628 1.883 0.000 -2.510 -0.000 0.000
2736 2734 2737 2740 3 0.628 1.883 0.000 -2.510 -0.000 0.000
2737 2740 2743 2744 3 0.628 1.883 0.000 -2.510 -0.000 0.000
2737 2740 2743 2745 3 0.628 1.883 0.000 -2.510 -0.000 0.000
2737 2740 2743 2746 3 2.301 -1.464 0.837 -1.674 -0.000 0.000
2738 2737 2740 2741 3 0.628 1.883 0.000 -2.510 -0.000 0.000
2738 2737 2740 2742 3 0.628 1.883 0.000 -2.510 -0.000 0.000
2738 2737 2740 2743 3 0.628 1.883 0.000 -2.510 -0.000 0.000
2739 2737 2740 2741 3 0.628 1.883 0.000 -2.510 -0.000 0.000
2739 2737 2740 2742 3 0.628 1.883 0.000 -2.510 -0.000 0.000
2739 2737 2740 2743 3 0.628 1.883 0.000 -2.510 -0.000 0.000
2740 2743 2746 2747 3 0.628 1.883 0.000 -2.510 -0.000 0.000
2740 2743 2746 2748 3 0.628 1.883 0.000 -2.510 -0.000 0.000
2740 2743 2746 2749 3 2.301 -1.464 0.837 -1.674 -0.000 0.000
2741 2740 2743 2744 3 0.628 1.883 0.000 -2.510 -0.000 0.000
2741 2740 2743 2745 3 0.628 1.883 0.000 -2.510 -0.000 0.000
2741 2740 2743 2746 3 0.628 1.883 0.000 -2.510 -0.000 0.000
2742 2740 2743 2744 3 0.628 1.883 0.000 -2.510 -0.000 0.000
2742 2740 2743 2745 3 0.628 1.883 0.000 -2.510 -0.000 0.000
2742 2740 2743 2746 3 0.628 1.883 0.000 -2.510 -0.000 0.000
2743 2746 2749 2750 3 0.628 1.883 0.000 -2.510 -0.000 0.000
2743 2746 2749 2751 3 0.628 1.883 0.000 -2.510 -0.000 0.000
2743 2746 2749 2752 3 2.301 -1.464 0.837 -1.674 -0.000 0.000
2744 2743 2746 2747 3 0.628 1.883 0.000 -2.510 -0.000 0.000
2744 2743 2746 2748 3 0.628 1.883 0.000 -2.510 -0.000 0.000
2744 2743 2746 2749 3 0.628 1.883 0.000 -2.510 -0.000 0.000
2745 2743 2746 2747 3 0.628 1.883 0.000 -2.510 -0.000 0.000
2745 2743 2746 2748 3 0.628 1.883 0.000 -2.510 -0.000 0.000
2745 2743 2746 2749 3 0.628 1.883 0.000 -2.510 -0.000 0.000
2746 2749 2752 2753 3 0.628 1.883 0.000 -2.510 -0.000 0.000
2746 2749 2752 2754 3 0.628 1.883 0.000 -2.510 -0.000 0.000
2746 2749 2752 2755 3 2.301 -1.464 0.837 -1.674 -0.000 0.000
2747 2746 2749 2750 3 0.628 1.883 0.000 -2.510 -0.000 0.000
2747 2746 2749 2751 3 0.628 1.883 0.000 -2.510 -0.000 0.000
2747 2746 2749 2752 3 0.628 1.883 0.000 -2.510 -0.000 0.000
2748 2746 2749 2750 3 0.628 1.883 0.000 -2.510 -0.000 0.000
2748 2746 2749 2751 3 0.628 1.883 0.000 -2.510 -0.000 0.000
2748 2746 2749 2752 3 0.628 1.883 0.000 -2.510 -0.000 0.000
2749 2752 2755 2756 3 0.628 1.883 0.000 -2.510 -0.000 0.000
2749 2752 2755 2757 3 0.628 1.883 0.000 -2.510 -0.000 0.000
2749 2752 2755 2758 3 0.628 1.883 0.000 -2.510 -0.000 0.000
2750 2749 2752 2753 3 0.628 1.883 0.000 -2.510 -0.000 0.000
2750 2749 2752 2754 3 0.628 1.883 0.000 -2.510 -0.000 0.000
2750 2749 2752 2755 3 0.628 1.883 0.000 -2.510 -0.000 0.000
2751 2749 2752 2753 3 0.628 1.883 0.000 -2.510 -0.000 0.000
2751 2749 2752 2754 3 0.628 1.883 0.000 -2.510 -0.000 0.000
2751 2749 2752 2755 3 0.628 1.883 0.000 -2.510 -0.000 0.000
2753 2752 2755 2756 3 0.628 1.883 0.000 -2.510 -0.000 0.000
2753 2752 2755 2757 3 0.628 1.883 0.000 -2.510 -0.000 0.000
2753 2752 2755 2758 3 0.628 1.883 0.000 -2.510 -0.000 0.000
2754 2752 2755 2756 3 0.628 1.883 0.000 -2.510 -0.000 0.000
2754 2752 2755 2757 3 0.628 1.883 0.000 -2.510 -0.000 0.000
2754 2752 2755 2758 3 0.628 1.883 0.000 -2.510 -0.000 0.000
2759 2760 2763 2764 3 -0.778 -2.335 0.000 3.113 -0.000 0.000
2759 2760 2763 2767 3 -0.778 -2.335 0.000 3.113 -0.000 0.000
2760 2763 2764 2765 3 58.576 0.000 -58.576 -0.000 -0.000 0.000
2760 2763 2764 2766 3 58.576 0.000 -58.576 -0.000 -0.000 0.000
2760 2763 2764 2799 3 2.928800 -1.464400 0.209200 -1.673600 0.000000 0.000000
2760 2763 2767 2768 3 1.789 -5.052 -0.962 4.226 -0.000 0.000
2760 2763 2767 2769 3 1.789 -5.052 -0.962 4.226 -0.000 0.000
2761 2760 2763 2764 3 -0.778 -2.335 0.000 3.113 -0.000 0.000
2761 2760 2763 2767 3 -0.778 -2.335 0.000 3.113 -0.000 0.000
2762 2760 2763 2764 3 -0.778 -2.335 0.000 3.113 -0.000 0.000
2762 2760 2763 2767 3 -0.778 -2.335 0.000 3.113 -0.000 0.000
2764 2760 2763 2767 4 180.000 10.460 2
2763 2764 2799 2796 3 2.928800 -1.464400 0.209200 -1.673600 0.000000 0.000000
2763 2764 2799 2800 3 2.928800 -1.464400 0.209200 -1.673600 0.000000 0.000000
2763 2764 2799 2803 3 2.928800 -1.464400 0.209200 -1.673600 0.000000 0.000000
2763 2767 2769 2770 3 31.206 -9.768 -21.439 -0.000 -0.000 0.000
2764 2763 2767 2768 3 30.334 -5.230 -25.104 -0.000 -0.000 0.000
2764 2763 2767 2769 3 -5.858 -6.694 12.552 -0.000 -0.000 0.000
2765 2763 2764 2766 4 180.000 10.460 2
2767 2763 2764 2765 3 58.576 0.000 -58.576 -0.000 -0.000 0.000
2767 2763 2764 2766 3 58.576 0.000 -58.576 -0.000 -0.000 0.000
2767 2763 2764 2799 3 2.928800 -1.464400 0.209200 -1.673600 0.000000 0.000000
2768 2763 2767 2769 4 180.000 43.932 2
2764 2799 2800 2801 3 0.627600 1.882800 0.000000 -2.510400 0.000000 0.000000
2764 2799 2800 2802 3 0.627600 1.882800 0.000000 -2.510400 0.000000 0.000000
2764 2799 2800 2835 3 2.928800 -1.464400 0.209200 -1.673600 0.000000 0.000000
2764 2799 2803 2804 3 2.874410 0.581580 2.092000 -5.547990 0.000000 0.000000
2764 2799 2803 2805 3 2.874410 0.581580 2.092000 -5.547990 0.000000 0.000000
2765 2764 2799 2796 3 0.627600 1.882800 0.000000 -2.510400 0.000000 0.000000
2765 2764 2799 2800 3 0.627600 1.882800 0.000000 -2.510400 0.000000 0.000000
2765 2764 2799 2803 3 0.627600 1.882800 0.000000 -2.510400 0.000000 0.000000
2766 2764 2799 2796 3 0.627600 1.882800 0.000000 -2.510400 0.000000 0.000000
2766 2764 2799 2800 3 0.627600 1.882800 0.000000 -2.510400 0.000000 0.000000
2766 2764 2799 2803 3 0.627600 1.882800 0.000000 -2.510400 0.000000 0.000000
2795 2796 2799 2764 3 0.627600 1.882800 0.000000 -2.510400 0.000000 0.000000
2797 2796 2799 2764 3 0.627600 1.882800 0.000000 -2.510400 0.000000 0.000000
2798 2796 2799 2764 3 0.627600 1.882800 0.000000 -2.510400 0.000000 0.000000
2767 2769 2770 2771 3 0.414 1.243 0.000 -1.657 -0.000 0.000
2767 2769 2770 2772 3 0.414 1.243 0.000 -1.657 -0.000 0.000
2767 2769 2770 2773 3 -2.197 5.201 0.527 -3.531 -0.000 0.000
2768 2767 2769 2770 3 21.439 0.000 -21.439 -0.000 -0.000 0.000
2769 2770 2773 2774 3 0.979 2.937 0.000 -3.916 -0.000 0.000
2769 2770 2773 2775 3 2.874 0.582 2.092 -5.548 -0.000 0.000
2769 2770 2773 2782 3 2.874 0.582 2.092 -5.548 -0.000 0.000
2770 2773 2775 2776 3 0.628 1.883 0.000 -2.510 -0.000 0.000
2770 2773 2775 2777 3 0.628 1.883 0.000 -2.510 -0.000 0.000
2770 2773 2775 2778 3 2.301 -1.464 0.837 -1.674 -0.000 0.000
2770 2773 2782 2783 3 0.628 1.883 0.000 -2.510 -0.000 0.000
2770 2773 2782 2784 3 0.628 1.883 0.000 -2.510 -0.000 0.000
2770 2773 2782 2785 3 2.301 -1.464 0.837 -1.674 -0.000 0.000
2771 2770 2773 2774 3 0.628 1.883 0.000 -2.510 -0.000 0.000
2771 2770 2773 2775 3 0.628 1.883 0.000 -2.510 -0.000 0.000
2771 2770 2773 2782 3 0.628 1.883 0.000 -2.510 -0.000 0.000
2772 2770 2773 2774 3 0.628 1.883 0.000 -2.510 -0.000 0.000
2772 2770 2773 2775 3 0.628 1.883 0.000 -2.510 -0.000 0.000
2772 2770 2773 2782 3 0.628 1.883 0.000 -2.510 -0.000 0.000
2773 2775 2778 2779 3 0.628 1.883 0.000 -2.510 -0.000 0.000
2773 2775 2778 2780 3 0.628 1.883 0.000 -2.510 -0.000 0.000
2773 2775 2778 2781 3 0.628 1.883 0.000 -2.510 -0.000 0.000
2773 2782 2785 2786 3 0.628 1.883 0.000 -2.510 -0.000 0.000
2773 2782 2785 2787 3 0.628 1.883 0.000 -2.510 -0.000 0.000
2773 2782 2785 2788 3 2.301 -1.464 0.837 -1.674 -0.000 0.000
2774 2773 2775 2776 3 0.628 1.883 0.000 -2.510 -0.000 0.000
2774 2773 2775 2777 3 0.628 1.883 0.000 -2.510 -0.000 0.000
2774 2773 2775 2778 3 0.628 1.883 0.000 -2.510 -0.000 0.000
2774 2773 2782 2783 3 0.628 1.883 0.000 -2.510 -0.000 0.000
2774 2773 2782 2784 3 0.628 1.883 0.000 -2.510 -0.000 0.000
2774 2773 2782 2785 3 0.628 1.883 0.000 -2.510 -0.000 0.000
2775 2773 2782 2783 3 0.628 1.883 0.000 -2.510 -0.000 0.000
2775 2773 2782 2784 3 0.628 1.883 0.000 -2.510 -0.000 0.000
2775 2773 2782 2785 3 2.301 -1.464 0.837 -1.674 -0.000 0.000
2782 2773 2775 2776 3 0.628 1.883 0.000 -2.510 -0.000 0.000
2782 2773 2775 2777 3 0.628 1.883 0.000 -2.510 -0.000 0.000
2782 2773 2775 2778 3 2.301 -1.464 0.837 -1.674 -0.000 0.000
2776 2775 2778 2779 3 0.628 1.883 0.000 -2.510 -0.000 0.000
2776 2775 2778 2780 3 0.628 1.883 0.000 -2.510 -0.000 0.000
2776 2775 2778 2781 3 0.628 1.883 0.000 -2.510 -0.000 0.000
2777 2775 2778 2779 3 0.628 1.883 0.000 -2.510 -0.000 0.000
2777 2775 2778 2780 3 0.628 1.883 0.000 -2.510 -0.000 0.000
2777 2775 2778 2781 3 0.628 1.883 0.000 -2.510 -0.000 0.000
2782 2785 2788 2789 3 0.628 1.883 0.000 -2.510 -0.000 0.000
2782 2785 2788 2790 3 0.628 1.883 0.000 -2.510 -0.000 0.000
2782 2785 2788 2791 3 2.301 -1.464 0.837 -1.674 -0.000 0.000
2783 2782 2785 2786 3 0.628 1.883 0.000 -2.510 -0.000 0.000
2783 2782 2785 2787 3 0.628 1.883 0.000 -2.510 -0.000 0.000
2783 2782 2785 2788 3 0.628 1.883 0.000 -2.510 -0.000 0.000
2784 2782 2785 2786 3 0.628 1.883 0.000 -2.510 -0.000 0.000
2784 2782 2785 2787 3 0.628 1.883 0.000 -2.510 -0.000 0.000
2784 2782 2785 2788 3 0.628 1.883 0.000 -2.510 -0.000 0.000
2785 2788 2791 2792 3 0.628 1.883 0.000 -2.510 -0.000 0.000
2785 2788 2791 2793 3 0.628 1.883 0.000 -2.510 -0.000 0.000
2785 2788 2791 2794 3 0.628 1.883 0.000 -2.510 -0.000 0.000
2786 2785 2788 2789 3 0.628 1.883 0.000 -2.510 -0.000 0.000
2786 2785 2788 2790 3 0.628 1.883 0.000 -2.510 -0.000 0.000
2786 2785 2788 2791 3 0.628 1.883 0.000 -2.510 -0.000 0.000
2787 2785 2788 2789 3 0.628 1.883 0.000 -2.510 -0.000 0.000
2787 2785 2788 2790 3 0.628 1.883 0.000 -2.510 -0.000 0.000
2787 2785 2788 2791 3 0.628 1.883 0.000 -2.510 -0.000 0.000
2789 2788 2791 2792 3 0.628 1.883 0.000 -2.510 -0.000 0.000
2789 2788 2791 2793 3 0.628 1.883 0.000 -2.510 -0.000 0.000
2789 2788 2791 2794 3 0.628 1.883 0.000 -2.510 -0.000 0.000
2790 2788 2791 2792 3 0.628 1.883 0.000 -2.510 -0.000 0.000
2790 2788 2791 2793 3 0.628 1.883 0.000 -2.510 -0.000 0.000
2790 2788 2791 2794 3 0.628 1.883 0.000 -2.510 -0.000 0.000
2795 2796 2799 2800 3 -0.778 -2.335 0.000 3.113 -0.000 0.000
2795 2796 2799 2803 3 -0.778 -2.335 0.000 3.113 -0.000 0.000
2796 2799 2800 2801 3 58.576 0.000 -58.576 -0.000 -0.000 0.000
2796 2799 2800 2802 3 58.576 0.000 -58.576 -0.000 -0.000 0.000
2796 2799 2800 2835 3 2.928800 -1.464400 0.209200 -1.673600 0.000000 0.000000
2796 2799 2803 2804 3 1.789 -5.052 -0.962 4.226 -0.000 0.000
2796 2799 2803 2805 3 1.789 -5.052 -0.962 4.226 -0.000 0.000
2797 2796 2799 2800 3 -0.778 -2.335 0.000 3.113 -0.000 0.000
2797 2796 2799 2803 3 -0.778 -2.335 0.000 3.113 -0.000 0.000
2798 2796 2799 2800 3 -0.778 -2.335 0.000 3.113 -0.000 0.000
2798 2796 2799 2803 3 -0.778 -2.335 0.000 3.113 -0.000 0.000
2800 2796 2799 2803 4 180.000 10.460 2
2799 2800 2835 2832 3 2.928800 -1.464400 0.209200 -1.673600 0.000000 0.000000
2799 2800 2835 2836 3 2.928800 -1.464400 0.209200 -1.673600 0.000000 0.000000
2799 2800 2835 2839 3 2.928800 -1.464400 0.209200 -1.673600 0.000000 0.000000
2799 2803 2805 2806 3 31.206 -9.768 -21.439 -0.000 -0.000 0.000
2800 2799 2803 2804 3 30.334 -5.230 -25.104 -0.000 -0.000 0.000
2800 2799 2803 2805 3 -5.858 -6.694 12.552 -0.000 -0.000 0.000
2801 2799 2800 2802 4 180.000 10.460 2
2803 2799 2800 2801 3 58.576 0.000 -58.576 -0.000 -0.000 0.000
2803 2799 2800 2802 3 58.576 0.000 -58.576 -0.000 -0.000 0.000
2803 2799 2800 2835 3 2.928800 -1.464400 0.209200 -1.673600 0.000000 0.000000
2804 2799 2803 2805 4 180.000 43.932 2
2800 2835 2836 2837 3 0.627600 1.882800 0.000000 -2.510400 0.000000 0.000000
2800 2835 2836 2838 3 0.627600 1.882800 0.000000 -2.510400 0.000000 0.000000
2800 2835 2836 2901 3 2.928800 -1.464400 0.209200 -1.673600 0.000000 0.000000
2800 2835 2839 2840 3 2.874410 0.581580 2.092000 -5.547990 0.000000 0.000000
2800 2835 2839 2841 3 2.874410 0.581580 2.092000 -5.547990 0.000000 0.000000
2801 2800 2835 2832 3 0.627600 1.882800 0.000000 -2.510400 0.000000 0.000000
2801 2800 2835 2836 3 0.627600 1.882800 0.000000 -2.510400 0.000000 0.000000
2801 2800 2835 2839 3 0.627600 1.882800 0.000000 -2.510400 0.000000 0.000000
2802 2800 2835 2832 3 0.627600 1.882800 0.000000 -2.510400 0.000000 0.000000
2802 2800 2835 2836 3 0.627600 1.882800 0.000000 -2.510400 0.000000 0.000000
2802 2800 2835 2839 3 0.627600 1.882800 0.000000 -2.510400 0.000000 0.000000
2831 2832 2835 2800 3 0.627600 1.882800 0.000000 -2.510400 0.000000 0.000000
2833 2832 2835 2800 3 0.627600 1.882800 0.000000 -2.510400 0.000000 0.000000
2834 2832 2835 2800 3 0.627600 1.882800 0.000000 -2.510400 0.000000 0.000000
2803 2805 2806 2807 3 0.414 1.243 0.000 -1.657 -0.000 0.000
2803 2805 2806 2808 3 0.414 1.243 0.000 -1.657 -0.000 0.000
2803 2805 2806 2809 3 -2.197 5.201 0.527 -3.531 -0.000 0.000
2804 2803 2805 2806 3 21.439 0.000 -21.439 -0.000 -0.000 0.000
2805 2806 2809 2810 3 0.979 2.937 0.000 -3.916 -0.000 0.000
2805 2806 2809 2811 3 2.874 0.582 2.092 -5.548 -0.000 0.000
2805 2806 2809 2818 3 2.874 0.582 2.092 -5.548 -0.000 0.000
2806 2809 2811 2812 3 0.628 1.883 0.000 -2.510 -0.000 0.000
2806 2809 2811 2813 3 0.628 1.883 0.000 -2.510 -0.000 0.000
2806 2809 2811 2814 3 2.301 -1.464 0.837 -1.674 -0.000 0.000
2806 2809 2818 2819 3 0.628 1.883 0.000 -2.510 -0.000 0.000
2806 2809 2818 2820 3 0.628 1.883 0.000 -2.510 -0.000 0.000
2806 2809 2818 2821 3 2.301 -1.464 0.837 -1.674 -0.000 0.000
2807 2806 2809 2810 3 0.628 1.883 0.000 -2.510 -0.000 0.000
2807 2806 2809 2811 3 0.628 1.883 0.000 -2.510 -0.000 0.000
2807 2806 2809 2818 3 0.628 1.883 0.000 -2.510 -0.000 0.000
2808 2806 2809 2810 3 0.628 1.883 0.000 -2.510 -0.000 0.000
2808 2806 2809 2811 3 0.628 1.883 0.000 -2.510 -0.000 0.000
2808 2806 2809 2818 3 0.628 1.883 0.000 -2.510 -0.000 0.000
2809 2811 2814 2815 3 0.628 1.883 0.000 -2.510 -0.000 0.000
2809 2811 2814 2816 3 0.628 1.883 0.000 -2.510 -0.000 0.000
2809 2811 2814 2817 3 0.628 1.883 0.000 -2.510 -0.000 0.000
2809 2818 2821 2822 3 0.628 1.883 0.000 -2.510 -0.000 0.000
2809 2818 2821 2823 3 0.628 1.883 0.000 -2.510 -0.000 0.000
2809 2818 2821 2824 3 2.301 -1.464 0.837 -1.674 -0.000 0.000
2810 2809 2811 2812 3 0.628 1.883 0.000 -2.510 -0.000 0.000
2810 2809 2811 2813 3 0.628 1.883 0.000 -2.510 -0.000 0.000
2810 2809 2811 2814 3 0.628 1.883 0.000 -2.510 -0.000 0.000
2810 2809 2818 2819 3 0.628 1.883 0.000 -2.510 -0.000 0.000
2810 2809 2818 2820 3 0.628 1.883 0.000 -2.510 -0.000 0.000
2810 2809 2818 2821 3 0.628 1.883 0.000 -2.510 -0.000 0.000
2811 2809 2818 2819 3 0.628 1.883 0.000 -2.510 -0.000 0.000
2811 2809 2818 2820 3 0.628 1.883 0.000 -2.510 -0.000 0.000
2811 2809 2818 2821 3 2.301 -1.464 0.837 -1.674 -0.000 0.000
2818 2809 2811 2812 3 0.628 1.883 0.000 -2.510 -0.000 0.000
2818 2809 2811 2813 3 0.628 1.883 0.000 -2.510 -0.000 0.000
2818 2809 2811 2814 3 2.301 -1.464 0.837 -1.674 -0.000 0.000
2812 2811 2814 2815 3 0.628 1.883 0.000 -2.510 -0.000 0.000
2812 2811 2814 2816 3 0.628 1.883 0.000 -2.510 -0.000 0.000
2812 2811 2814 2817 3 0.628 1.883 0.000 -2.510 -0.000 0.000
2813 2811 2814 2815 3 0.628 1.883 0.000 -2.510 -0.000 0.000
2813 2811 2814 2816 3 0.628 1.883 0.000 -2.510 -0.000 0.000
2813 2811 2814 2817 3 0.628 1.883 0.000 -2.510 -0.000 0.000
2818 2821 2824 2825 3 0.628 1.883 0.000 -2.510 -0.000 0.000
2818 2821 2824 2826 3 0.628 1.883 0.000 -2.510 -0.000 0.000
2818 2821 2824 2827 3 2.301 -1.464 0.837 -1.674 -0.000 0.000
2819 2818 2821 2822 3 0.628 1.883 0.000 -2.510 -0.000 0.000
2819 2818 2821 2823 3 0.628 1.883 0.000 -2.510 -0.000 0.000
2819 2818 2821 2824 3 0.628 1.883 0.000 -2.510 -0.000 0.000
2820 2818 2821 2822 3 0.628 1.883 0.000 -2.510 -0.000 0.000
2820 2818 2821 2823 3 0.628 1.883 0.000 -2.510 -0.000 0.000
2820 2818 2821 2824 3 0.628 1.883 0.000 -2.510 -0.000 0.000
2821 2824 2827 2828 3 0.628 1.883 0.000 -2.510 -0.000 0.000
2821 2824 2827 2829 3 0.628 1.883 0.000 -2.510 -0.000 0.000
2821 2824 2827 2830 3 0.628 1.883 0.000 -2.510 -0.000 0.000
2822 2821 2824 2825 3 0.628 1.883 0.000 -2.510 -0.000 0.000
2822 2821 2824 2826 3 0.628 1.883 0.000 -2.510 -0.000 0.000
2822 2821 2824 2827 3 0.628 1.883 0.000 -2.510 -0.000 0.000
2823 2821 2824 2825 3 0.628 1.883 0.000 -2.510 -0.000 0.000
2823 2821 2824 2826 3 0.628 1.883 0.000 -2.510 -0.000 0.000
2823 2821 2824 2827 3 0.628 1.883 0.000 -2.510 -0.000 0.000
2825 2824 2827 2828 3 0.628 1.883 0.000 -2.510 -0.000 0.000
2825 2824 2827 2829 3 0.628 1.883 0.000 -2.510 -0.000 0.000
2825 2824 2827 2830 3 0.628 1.883 0.000 -2.510 -0.000 0.000
2826 2824 2827 2828 3 0.628 1.883 0.000 -2.510 -0.000 0.000
2826 2824 2827 2829 3 0.628 1.883 0.000 -2.510 -0.000 0.000
2826 2824 2827 2830 3 0.628 1.883 0.000 -2.510 -0.000 0.000
2831 2832 2835 2836 3 -0.778 -2.335 0.000 3.113 -0.000 0.000
2831 2832 2835 2839 3 -0.778 -2.335 0.000 3.113 -0.000 0.000
2832 2835 2836 2837 3 58.576 0.000 -58.576 -0.000 -0.000 0.000
2832 2835 2836 2838 3 58.576 0.000 -58.576 -0.000 -0.000 0.000
2832 2835 2836 2901 3 2.928800 -1.464400 0.209200 -1.673600 0.000000 0.000000
2832 2835 2839 2840 3 1.789 -5.052 -0.962 4.226 -0.000 0.000
2832 2835 2839 2841 3 1.789 -5.052 -0.962 4.226 -0.000 0.000
2833 2832 2835 2836 3 -0.778 -2.335 0.000 3.113 -0.000 0.000
2833 2832 2835 2839 3 -0.778 -2.335 0.000 3.113 -0.000 0.000
2834 2832 2835 2836 3 -0.778 -2.335 0.000 3.113 -0.000 0.000
2834 2832 2835 2839 3 -0.778 -2.335 0.000 3.113 -0.000 0.000
2836 2832 2835 2839 4 180.000 10.460 2
2835 2836 2901 2898 3 2.928800 -1.464400 0.209200 -1.673600 0.000000 0.000000
2835 2836 2901 2902 3 2.928800 -1.464400 0.209200 -1.673600 0.000000 0.000000
2835 2836 2901 2905 3 2.928800 -1.464400 0.209200 -1.673600 0.000000 0.000000
2835 2839 2841 2842 3 31.206 -9.768 -21.439 -0.000 -0.000 0.000
2836 2835 2839 2840 3 30.334 -5.230 -25.104 -0.000 -0.000 0.000
2836 2835 2839 2841 3 -5.858 -6.694 12.552 -0.000 -0.000 0.000
2837 2835 2836 2838 4 180.000 10.460 2
2839 2835 2836 2837 3 58.576 0.000 -58.576 -0.000 -0.000 0.000
2839 2835 2836 2838 3 58.576 0.000 -58.576 -0.000 -0.000 0.000
2839 2835 2836 2901 3 2.928800 -1.464400 0.209200 -1.673600 0.000000 0.000000
2840 2835 2839 2841 4 180.000 43.932 2
2836 2901 2902 2903 3 0.627600 1.882800 0.000000 -2.510400 0.000000 0.000000
2836 2901 2902 2904 3 0.627600 1.882800 0.000000 -2.510400 0.000000 0.000000
2836 2901 2902 2937 3 2.928800 -1.464400 0.209200 -1.673600 0.000000 0.000000
2836 2901 2905 2906 3 2.874410 0.581580 2.092000 -5.547990 0.000000 0.000000
2836 2901 2905 2907 3 2.874410 0.581580 2.092000 -5.547990 0.000000 0.000000
2837 2836 2901 2898 3 0.627600 1.882800 0.000000 -2.510400 0.000000 0.000000
2837 2836 2901 2902 3 0.627600 1.882800 0.000000 -2.510400 0.000000 0.000000
2837 2836 2901 2905 3 0.627600 1.882800 0.000000 -2.510400 0.000000 0.000000
2838 2836 2901 2898 3 0.627600 1.882800 0.000000 -2.510400 0.000000 0.000000
2838 2836 2901 2902 3 0.627600 1.882800 0.000000 -2.510400 0.000000 0.000000
2838 2836 2901 2905 3 0.627600 1.882800 0.000000 -2.510400 0.000000 0.000000
2897 2898 2901 2836 3 0.627600 1.882800 0.000000 -2.510400 0.000000 0.000000
2899 2898 2901 2836 3 0.627600 1.882800 0.000000 -2.510400 0.000000 0.000000
2900 2898 2901 2836 3 0.627600 1.882800 0.000000 -2.510400 0.000000 0.000000
2839 2841 2842 2843 3 0.414 1.243 0.000 -1.657 -0.000 0.000
2839 2841 2842 2844 3 0.414 1.243 0.000 -1.657 -0.000 0.000
2839 2841 2842 2845 3 -2.197 5.201 0.527 -3.531 -0.000 0.000
2840 2839 2841 2842 3 21.439 0.000 -21.439 -0.000 -0.000 0.000
2841 2842 2845 2846 3 0.979 2.937 0.000 -3.916 -0.000 0.000
2841 2842 2845 2847 3 0.979 2.937 0.000 -3.916 -0.000 0.000
2841 2842 2845 2848 3 2.874 0.582 2.092 -5.548 -0.000 0.000
2842 2845 2848 2849 3 0.628 1.883 0.000 -2.510 -0.000 0.000
2842 2845 2848 2850 3 0.628 1.883 0.000 -2.510 -0.000 0.000
2842 2845 2848 2851 3 2.301 -1.464 0.837 -1.674 -0.000 0.000
2843 2842 2845 2846 3 0.628 1.883 0.000 -2.510 -0.000 0.000
2843 2842 2845 2847 3 0.628 1.883 0.000 -2.510 -0.000 0.000
2843 2842 2845 2848 3 0.628 1.883 0.000 -2.510 -0.000 0.000
2844 2842 2845 2846 3 0.628 1.883 0.000 -2.510 -0.000 0.000
2844 2842 2845 2847 3 0.628 1.883 0.000 -2.510 -0.000 0.000
2844 2842 2845 2848 3 0.628 1.883 0.000 -2.510 -0.000 0.000
2845 2848 2851 2852 3 0.628 1.883 0.000 -2.510 -0.000 0.000
2845 2848 2851 2853 3 0.628 1.883 0.000 -2.510 -0.000 0.000
2845 2848 2851 2854 3 2.301 -1.464 0.837 -1.674 -0.000 0.000
2846 2845 2848 2849 3 0.628 1.883 0.000 -2.510 -0.000 0.000
2846 2845 2848 2850 3 0.628 1.883 0.000 -2.510 -0.000 0.000
2846 2845 2848 2851 3 0.628 1.883 0.000 -2.510 -0.000 0.000
2847 2845 2848 2849 3 0.628 1.883 0.000 -2.510 -0.000 0.000
2847 2845 2848 2850 3 0.628 1.883 0.000 -2.510 -0.000 0.000
2847 2845 2848 2851 3 0.628 1.883 0.000 -2.510 -0.000 0.000
2848 2851 2854 2855 3 0.628 1.883 0.000 -2.510 -0.000 0.000
2848 2851 2854 2856 3 0.628 1.883 0.000 -2.510 -0.000 0.000
2848 2851 2854 2857 3 2.301 -1.464 0.837 -1.674 -0.000 0.000
2849 2848 2851 2852 3 0.628 1.883 0.000 -2.510 -0.000 0.000
2849 2848 2851 2853 3 0.628 1.883 0.000 -2.510 -0.000 0.000
2849 2848 2851 2854 3 0.628 1.883 0.000 -2.510 -0.000 0.000
2850 2848 2851 2852 3 0.628 1.883 0.000 -2.510 -0.000 0.000
2850 2848 2851 2853 3 0.628 1.883 0.000 -2.510 -0.000 0.000
2850 2848 2851 2854 3 0.628 1.883 0.000 -2.510 -0.000 0.000
2851 2854 2857 2858 3 0.628 1.883 0.000 -2.510 -0.000 0.000
2851 2854 2857 2859 3 0.628 1.883 0.000 -2.510 -0.000 0.000
2851 2854 2857 2860 3 2.301 -1.464 0.837 -1.674 -0.000 0.000
2852 2851 2854 2855 3 0.628 1.883 0.000 -2.510 -0.000 0.000
2852 2851 2854 2856 3 0.628 1.883 0.000 -2.510 -0.000 0.000
2852 2851 2854 2857 3 0.628 1.883 0.000 -2.510 -0.000 0.000
2853 2851 2854 2855 3 0.628 1.883 0.000 -2.510 -0.000 0.000
2853 2851 2854 2856 3 0.628 1.883 0.000 -2.510 -0.000 0.000
2853 2851 2854 2857 3 0.628 1.883 0.000 -2.510 -0.000 0.000
2854 2857 2860 2861 3 0.628 1.883 0.000 -2.510 -0.000 0.000
2854 2857 2860 2862 3 0.628 1.883 0.000 -2.510 -0.000 0.000
2854 2857 2860 2863 3 2.301 -1.464 0.837 -1.674 -0.000 0.000
2855 2854 2857 2858 3 0.628 1.883 0.000 -2.510 -0.000 0.000
2855 2854 2857 2859 3 0.628 1.883 0.000 -2.510 -0.000 0.000
2855 2854 2857 2860 3 0.628 1.883 0.000 -2.510 -0.000 0.000
2856 2854 2857 2858 3 0.628 1.883 0.000 -2.510 -0.000 0.000
2856 2854 2857 2859 3 0.628 1.883 0.000 -2.510 -0.000 0.000
2856 2854 2857 2860 3 0.628 1.883 0.000 -2.510 -0.000 0.000
2857 2860 2863 2864 3 0.628 1.883 0.000 -2.510 -0.000 0.000
2857 2860 2863 2865 3 0.628 1.883 0.000 -2.510 -0.000 0.000
2857 2860 2863 2866 3 2.301 -1.464 0.837 -1.674 -0.000 0.000
2858 2857 2860 2861 3 0.628 1.883 0.000 -2.510 -0.000 0.000
2858 2857 2860 2862 3 0.628 1.883 0.000 -2.510 -0.000 0.000
2858 2857 2860 2863 3 0.628 1.883 0.000 -2.510 -0.000 0.000
2859 2857 2860 2861 3 0.628 1.883 0.000 -2.510 -0.000 0.000
2859 2857 2860 2862 3 0.628 1.883 0.000 -2.510 -0.000 0.000
2859 2857 2860 2863 3 0.628 1.883 0.000 -2.510 -0.000 0.000
2860 2863 2866 2867 3 0.628 1.883 0.000 -2.510 -0.000 0.000
2860 2863 2866 2868 3 0.628 1.883 0.000 -2.510 -0.000 0.000
2860 2863 2866 2869 3 2.301 -1.464 0.837 -1.674 -0.000 0.000
2861 2860 2863 2864 3 0.628 1.883 0.000 -2.510 -0.000 0.000
2861 2860 2863 2865 3 0.628 1.883 0.000 -2.510 -0.000 0.000
2861 2860 2863 2866 3 0.628 1.883 0.000 -2.510 -0.000 0.000
2862 2860 2863 2864 3 0.628 1.883 0.000 -2.510 -0.000 0.000
2862 2860 2863 2865 3 0.628 1.883 0.000 -2.510 -0.000 0.000
2862 2860 2863 2866 3 0.628 1.883 0.000 -2.510 -0.000 0.000
2863 2866 2869 2870 3 0.628 1.883 0.000 -2.510 -0.000 0.000
2863 2866 2869 2871 3 0.628 1.883 0.000 -2.510 -0.000 0.000
2863 2866 2869 2872 3 2.301 -1.464 0.837 -1.674 -0.000 0.000
2864 2863 2866 2867 3 0.628 1.883 0.000 -2.510 -0.000 0.000
2864 2863 2866 2868 3 0.628 1.883 0.000 -2.510 -0.000 0.000
2864 2863 2866 2869 3 0.628 1.883 0.000 -2.510 -0.000 0.000
2865 2863 2866 2867 3 0.628 1.883 0.000 -2.510 -0.000 0.000
2865 2863 2866 2868 3 0.628 1.883 0.000 -2.510 -0.000 0.000
2865 2863 2866 2869 3 0.628 1.883 0.000 -2.510 -0.000 0.000
2866 2869 2872 2873 3 0.628 1.883 0.000 -2.510 -0.000 0.000
2866 2869 2872 2874 3 0.628 1.883 0.000 -2.510 -0.000 0.000
2866 2869 2872 2875 3 2.301 -1.464 0.837 -1.674 -0.000 0.000
2867 2866 2869 2870 3 0.628 1.883 0.000 -2.510 -0.000 0.000
2867 2866 2869 2871 3 0.628 1.883 0.000 -2.510 -0.000 0.000
2867 2866 2869 2872 3 0.628 1.883 0.000 -2.510 -0.000 0.000
2868 2866 2869 2870 3 0.628 1.883 0.000 -2.510 -0.000 0.000
2868 2866 2869 2871 3 0.628 1.883 0.000 -2.510 -0.000 0.000
2868 2866 2869 2872 3 0.628 1.883 0.000 -2.510 -0.000 0.000
2869 2872 2875 2876 3 0.628 1.883 0.000 -2.510 -0.000 0.000
2869 2872 2875 2877 3 0.628 1.883 0.000 -2.510 -0.000 0.000
2869 2872 2875 2878 3 2.301 -1.464 0.837 -1.674 -0.000 0.000
2870 2869 2872 2873 3 0.628 1.883 0.000 -2.510 -0.000 0.000
2870 2869 2872 2874 3 0.628 1.883 0.000 -2.510 -0.000 0.000
2870 2869 2872 2875 3 0.628 1.883 0.000 -2.510 -0.000 0.000
2871 2869 2872 2873 3 0.628 1.883 0.000 -2.510 -0.000 0.000
2871 2869 2872 2874 3 0.628 1.883 0.000 -2.510 -0.000 0.000
2871 2869 2872 2875 3 0.628 1.883 0.000 -2.510 -0.000 0.000
2872 2875 2878 2879 3 0.628 1.883 0.000 -2.510 -0.000 0.000
2872 2875 2878 2880 3 0.628 1.883 0.000 -2.510 -0.000 0.000
2872 2875 2878 2881 3 2.301 -1.464 0.837 -1.674 -0.000 0.000
2873 2872 2875 2876 3 0.628 1.883 0.000 -2.510 -0.000 0.000
2873 2872 2875 2877 3 0.628 1.883 0.000 -2.510 -0.000 0.000
2873 2872 2875 2878 3 0.628 1.883 0.000 -2.510 -0.000 0.000
2874 2872 2875 2876 3 0.628 1.883 0.000 -2.510 -0.000 0.000
2874 2872 2875 2877 3 0.628 1.883 0.000 -2.510 -0.000 0.000
2874 2872 2875 2878 3 0.628 1.883 0.000 -2.510 -0.000 0.000
2875 2878 2881 2882 3 0.628 1.883 0.000 -2.510 -0.000 0.000
2875 2878 2881 2883 3 0.628 1.883 0.000 -2.510 -0.000 0.000
2875 2878 2881 2884 3 2.301 -1.464 0.837 -1.674 -0.000 0.000
2876 2875 2878 2879 3 0.628 1.883 0.000 -2.510 -0.000 0.000
2876 2875 2878 2880 3 0.628 1.883 0.000 -2.510 -0.000 0.000
2876 2875 2878 2881 3 0.628 1.883 0.000 -2.510 -0.000 0.000
2877 2875 2878 2879 3 0.628 1.883 0.000 -2.510 -0.000 0.000
2877 2875 2878 2880 3 0.628 1.883 0.000 -2.510 -0.000 0.000
2877 2875 2878 2881 3 0.628 1.883 0.000 -2.510 -0.000 0.000
2878 2881 2884 2885 3 0.628 1.883 0.000 -2.510 -0.000 0.000
2878 2881 2884 2886 3 0.628 1.883 0.000 -2.510 -0.000 0.000
2878 2881 2884 2887 3 2.301 -1.464 0.837 -1.674 -0.000 0.000
2879 2878 2881 2882 3 0.628 1.883 0.000 -2.510 -0.000 0.000
2879 2878 2881 2883 3 0.628 1.883 0.000 -2.510 -0.000 0.000
2879 2878 2881 2884 3 0.628 1.883 0.000 -2.510 -0.000 0.000
2880 2878 2881 2882 3 0.628 1.883 0.000 -2.510 -0.000 0.000
2880 2878 2881 2883 3 0.628 1.883 0.000 -2.510 -0.000 0.000
2880 2878 2881 2884 3 0.628 1.883 0.000 -2.510 -0.000 0.000
2881 2884 2887 2888 3 0.628 1.883 0.000 -2.510 -0.000 0.000
2881 2884 2887 2889 3 0.628 1.883 0.000 -2.510 -0.000 0.000
2881 2884 2887 2890 3 2.301 -1.464 0.837 -1.674 -0.000 0.000
2882 2881 2884 2885 3 0.628 1.883 0.000 -2.510 -0.000 0.000
2882 2881 2884 2886 3 0.628 1.883 0.000 -2.510 -0.000 0.000
2882 2881 2884 2887 3 0.628 1.883 0.000 -2.510 -0.000 0.000
2883 2881 2884 2885 3 0.628 1.883 0.000 -2.510 -0.000 0.000
2883 2881 2884 2886 3 0.628 1.883 0.000 -2.510 -0.000 0.000
2883 2881 2884 2887 3 0.628 1.883 0.000 -2.510 -0.000 0.000
2884 2887 2890 2891 3 0.628 1.883 0.000 -2.510 -0.000 0.000
2884 2887 2890 2892 3 0.628 1.883 0.000 -2.510 -0.000 0.000
2884 2887 2890 2893 3 2.301 -1.464 0.837 -1.674 -0.000 0.000
2885 2884 2887 2888 3 0.628 1.883 0.000 -2.510 -0.000 0.000
2885 2884 2887 2889 3 0.628 1.883 0.000 -2.510 -0.000 0.000
2885 2884 2887 2890 3 0.628 1.883 0.000 -2.510 -0.000 0.000
2886 2884 2887 2888 3 0.628 1.883 0.000 -2.510 -0.000 0.000
2886 2884 2887 2889 3 0.628 1.883 0.000 -2.510 -0.000 0.000
2886 2884 2887 2890 3 0.628 1.883 0.000 -2.510 -0.000 0.000
2887 2890 2893 2894 3 0.628 1.883 0.000 -2.510 -0.000 0.000
2887 2890 2893 2895 3 0.628 1.883 0.000 -2.510 -0.000 0.000
2887 2890 2893 2896 3 0.628 1.883 0.000 -2.510 -0.000 0.000
2888 2887 2890 2891 3 0.628 1.883 0.000 -2.510 -0.000 0.000
2888 2887 2890 2892 3 0.628 1.883 0.000 -2.510 -0.000 0.000
2888 2887 2890 2893 3 0.628 1.883 0.000 -2.510 -0.000 0.000
2889 2887 2890 2891 3 0.628 1.883 0.000 -2.510 -0.000 0.000
2889 2887 2890 2892 3 0.628 1.883 0.000 -2.510 -0.000 0.000
2889 2887 2890 2893 3 0.628 1.883 0.000 -2.510 -0.000 0.000
2891 2890 2893 2894 3 0.628 1.883 0.000 -2.510 -0.000 0.000
2891 2890 2893 2895 3 0.628 1.883 0.000 -2.510 -0.000 0.000
2891 2890 2893 2896 3 0.628 1.883 0.000 -2.510 -0.000 0.000
2892 2890 2893 2894 3 0.628 1.883 0.000 -2.510 -0.000 0.000
2892 2890 2893 2895 3 0.628 1.883 0.000 -2.510 -0.000 0.000
2892 2890 2893 2896 3 0.628 1.883 0.000 -2.510 -0.000 0.000
2897 2898 2901 2902 3 -0.778 -2.335 0.000 3.113 -0.000 0.000
2897 2898 2901 2905 3 -0.778 -2.335 0.000 3.113 -0.000 0.000
2898 2901 2902 2903 3 58.576 0.000 -58.576 -0.000 -0.000 0.000
2898 2901 2902 2904 3 58.576 0.000 -58.576 -0.000 -0.000 0.000
2898 2901 2902 2937 3 2.928800 -1.464400 0.209200 -1.673600 0.000000 0.000000
2898 2901 2905 2906 3 1.789 -5.052 -0.962 4.226 -0.000 0.000
2898 2901 2905 2907 3 1.789 -5.052 -0.962 4.226 -0.000 0.000
2899 2898 2901 2902 3 -0.778 -2.335 0.000 3.113 -0.000 0.000
2899 2898 2901 2905 3 -0.778 -2.335 0.000 3.113 -0.000 0.000
2900 2898 2901 2902 3 -0.778 -2.335 0.000 3.113 -0.000 0.000
2900 2898 2901 2905 3 -0.778 -2.335 0.000 3.113 -0.000 0.000
2902 2898 2901 2905 4 180.000 10.460 2
2901 2902 2937 2934 3 2.928800 -1.464400 0.209200 -1.673600 0.000000 0.000000
2901 2902 2937 2938 3 2.928800 -1.464400 0.209200 -1.673600 0.000000 0.000000
2901 2902 2937 2941 3 2.928800 -1.464400 0.209200 -1.673600 0.000000 0.000000
2901 2905 2907 2908 3 31.206 -9.768 -21.439 -0.000 -0.000 0.000
2902 2901 2905 2906 3 30.334 -5.230 -25.104 -0.000 -0.000 0.000
2902 2901 2905 2907 3 -5.858 -6.694 12.552 -0.000 -0.000 0.000
2903 2901 2902 2904 4 180.000 10.460 2
2905 2901 2902 2903 3 58.576 0.000 -58.576 -0.000 -0.000 0.000
2905 2901 2902 2904 3 58.576 0.000 -58.576 -0.000 -0.000 0.000
2905 2901 2902 2937 3 2.928800 -1.464400 0.209200 -1.673600 0.000000 0.000000
2906 2901 2905 2907 4 180.000 43.932 2
2902 2937 2938 2939 3 0.627600 1.882800 0.000000 -2.510400 0.000000 0.000000
2902 2937 2938 2940 3 0.627600 1.882800 0.000000 -2.510400 0.000000 0.000000
2902 2937 2938 2985 3 2.928800 -1.464400 0.209200 -1.673600 0.000000 0.000000
2902 2937 2941 2942 3 2.874410 0.581580 2.092000 -5.547990 0.000000 0.000000
2902 2937 2941 2943 3 2.874410 0.581580 2.092000 -5.547990 0.000000 0.000000
2903 2902 2937 2934 3 0.627600 1.882800 0.000000 -2.510400 0.000000 0.000000
2903 2902 2937 2938 3 0.627600 1.882800 0.000000 -2.510400 0.000000 0.000000
2903 2902 2937 2941 3 0.627600 1.882800 0.000000 -2.510400 0.000000 0.000000
2904 2902 2937 2934 3 0.627600 1.882800 0.000000 -2.510400 0.000000 0.000000
2904 2902 2937 2938 3 0.627600 1.882800 0.000000 -2.510400 0.000000 0.000000
2904 2902 2937 2941 3 0.627600 1.882800 0.000000 -2.510400 0.000000 0.000000
2933 2934 2937 2902 3 0.627600 1.882800 0.000000 -2.510400 0.000000 0.000000
2935 2934 2937 2902 3 0.627600 1.882800 0.000000 -2.510400 0.000000 0.000000
2936 2934 2937 2902 3 0.627600 1.882800 0.000000 -2.510400 0.000000 0.000000
2905 2907 2908 2909 3 0.414 1.243 0.000 -1.657 -0.000 0.000
2905 2907 2908 2910 3 0.414 1.243 0.000 -1.657 -0.000 0.000
2905 2907 2908 2911 3 -2.197 5.201 0.527 -3.531 -0.000 0.000
2906 2905 2907 2908 3 21.439 0.000 -21.439 -0.000 -0.000 0.000
2907 2908 2911 2912 3 0.979 2.937 0.000 -3.916 -0.000 0.000
2907 2908 2911 2913 3 2.874 0.582 2.092 -5.548 -0.000 0.000
2907 2908 2911 2920 3 2.874 0.582 2.092 -5.548 -0.000 0.000
2908 2911 2913 2914 3 0.628 1.883 0.000 -2.510 -0.000 0.000
2908 2911 2913 2915 3 0.628 1.883 0.000 -2.510 -0.000 0.000
2908 2911 2913 2916 3 2.301 -1.464 0.837 -1.674 -0.000 0.000
2908 2911 2920 2921 3 0.628 1.883 0.000 -2.510 -0.000 0.000
2908 2911 2920 2922 3 0.628 1.883 0.000 -2.510 -0.000 0.000
2908 2911 2920 2923 3 2.301 -1.464 0.837 -1.674 -0.000 0.000
2909 2908 2911 2912 3 0.628 1.883 0.000 -2.510 -0.000 0.000
2909 2908 2911 2913 3 0.628 1.883 0.000 -2.510 -0.000 0.000
2909 2908 2911 2920 3 0.628 1.883 0.000 -2.510 -0.000 0.000
2910 2908 2911 2912 3 0.628 1.883 0.000 -2.510 -0.000 0.000
2910 2908 2911 2913 3 0.628 1.883 0.000 -2.510 -0.000 0.000
2910 2908 2911 2920 3 0.628 1.883 0.000 -2.510 -0.000 0.000
2911 2913 2916 2917 3 0.628 1.883 0.000 -2.510 -0.000 0.000
2911 2913 2916 2918 3 0.628 1.883 0.000 -2.510 -0.000 0.000
2911 2913 2916 2919 3 0.628 1.883 0.000 -2.510 -0.000 0.000
2911 2920 2923 2924 3 0.628 1.883 0.000 -2.510 -0.000 0.000
2911 2920 2923 2925 3 0.628 1.883 0.000 -2.510 -0.000 0.000
2911 2920 2923 2926 3 2.301 -1.464 0.837 -1.674 -0.000 0.000
2912 2911 2913 2914 3 0.628 1.883 0.000 -2.510 -0.000 0.000
2912 2911 2913 2915 3 0.628 1.883 0.000 -2.510 -0.000 0.000
2912 2911 2913 2916 3 0.628 1.883 0.000 -2.510 -0.000 0.000
2912 2911 2920 2921 3 0.628 1.883 0.000 -2.510 -0.000 0.000
2912 2911 2920 2922 3 0.628 1.883 0.000 -2.510 -0.000 0.000
2912 2911 2920 2923 3 0.628 1.883 0.000 -2.510 -0.000 0.000
2913 2911 2920 2921 3 0.628 1.883 0.000 -2.510 -0.000 0.000
2913 2911 2920 2922 3 0.628 1.883 0.000 -2.510 -0.000 0.000
2913 2911 2920 2923 3 2.301 -1.464 0.837 -1.674 -0.000 0.000
2920 2911 2913 2914 3 0.628 1.883 0.000 -2.510 -0.000 0.000
2920 2911 2913 2915 3 0.628 1.883 0.000 -2.510 -0.000 0.000
2920 2911 2913 2916 3 2.301 -1.464 0.837 -1.674 -0.000 0.000
2914 2913 2916 2917 3 0.628 1.883 0.000 -2.510 -0.000 0.000
2914 2913 2916 2918 3 0.628 1.883 0.000 -2.510 -0.000 0.000
2914 2913 2916 2919 3 0.628 1.883 0.000 -2.510 -0.000 0.000
2915 2913 2916 2917 3 0.628 1.883 0.000 -2.510 -0.000 0.000
2915 2913 2916 2918 3 0.628 1.883 0.000 -2.510 -0.000 0.000
2915 2913 2916 2919 3 0.628 1.883 0.000 -2.510 -0.000 0.000
2920 2923 2926 2927 3 0.628 1.883 0.000 -2.510 -0.000 0.000
2920 2923 2926 2928 3 0.628 1.883 0.000 -2.510 -0.000 0.000
2920 2923 2926 2929 3 2.301 -1.464 0.837 -1.674 -0.000 0.000
2921 2920 2923 2924 3 0.628 1.883 0.000 -2.510 -0.000 0.000
2921 2920 2923 2925 3 0.628 1.883 0.000 -2.510 -0.000 0.000
2921 2920 2923 2926 3 0.628 1.883 0.000 -2.510 -0.000 0.000
2922 2920 2923 2924 3 0.628 1.883 0.000 -2.510 -0.000 0.000
2922 2920 2923 2925 3 0.628 1.883 0.000 -2.510 -0.000 0.000
2922 2920 2923 2926 3 0.628 1.883 0.000 -2.510 -0.000 0.000
2923 2926 2929 2930 3 0.628 1.883 0.000 -2.510 -0.000 0.000
2923 2926 2929 2931 3 0.628 1.883 0.000 -2.510 -0.000 0.000
2923 2926 2929 2932 3 0.628 1.883 0.000 -2.510 -0.000 0.000
2924 2923 2926 2927 3 0.628 1.883 0.000 -2.510 -0.000 0.000
2924 2923 2926 2928 3 0.628 1.883 0.000 -2.510 -0.000 0.000
2924 2923 2926 2929 3 0.628 1.883 0.000 -2.510 -0.000 0.000
2925 2923 2926 2927 3 0.628 1.883 0.000 -2.510 -0.000 0.000
2925 2923 2926 2928 3 0.628 1.883 0.000 -2.510 -0.000 0.000
2925 2923 2926 2929 3 0.628 1.883 0.000 -2.510 -0.000 0.000
2927 2926 2929 2930 3 0.628 1.883 0.000 -2.510 -0.000 0.000
2927 2926 2929 2931 3 0.628 1.883 0.000 -2.510 -0.000 0.000
2927 2926 2929 2932 3 0.628 1.883 0.000 -2.510 -0.000 0.000
2928 2926 2929 2930 3 0.628 1.883 0.000 -2.510 -0.000 0.000
2928 2926 2929 2931 3 0.628 1.883 0.000 -2.510 -0.000 0.000
2928 2926 2929 2932 3 0.628 1.883 0.000 -2.510 -0.000 0.000
2933 2934 2937 2938 3 -0.778 -2.335 0.000 3.113 -0.000 0.000
2933 2934 2937 2941 3 -0.778 -2.335 0.000 3.113 -0.000 0.000
2934 2937 2938 2939 3 58.576 0.000 -58.576 -0.000 -0.000 0.000
2934 2937 2938 2940 3 58.576 0.000 -58.576 -0.000 -0.000 0.000
2934 2937 2938 2985 3 2.928800 -1.464400 0.209200 -1.673600 0.000000 0.000000
2934 2937 2941 2942 3 1.789 -5.052 -0.962 4.226 -0.000 0.000
2934 2937 2941 2943 3 1.789 -5.052 -0.962 4.226 -0.000 0.000
2935 2934 2937 2938 3 -0.778 -2.335 0.000 3.113 -0.000 0.000
2935 2934 2937 2941 3 -0.778 -2.335 0.000 3.113 -0.000 0.000
2936 2934 2937 2938 3 -0.778 -2.335 0.000 3.113 -0.000 0.000
2936 2934 2937 2941 3 -0.778 -2.335 0.000 3.113 -0.000 0.000
2938 2934 2937 2941 4 180.000 10.460 2
2937 2938 2985 2982 3 2.928800 -1.464400 0.209200 -1.673600 0.000000 0.000000
2937 2938 2985 2986 3 2.928800 -1.464400 0.209200 -1.673600 0.000000 0.000000
2937 2938 2985 2989 3 2.928800 -1.464400 0.209200 -1.673600 0.000000 0.000000
2937 2941 2943 2944 3 31.206 -9.768 -21.439 -0.000 -0.000 0.000
2938 2937 2941 2942 3 30.334 -5.230 -25.104 -0.000 -0.000 0.000
2938 2937 2941 2943 3 -5.858 -6.694 12.552 -0.000 -0.000 0.000
2939 2937 2938 2940 4 180.000 10.460 2
2941 2937 2938 2939 3 58.576 0.000 -58.576 -0.000 -0.000 0.000
2941 2937 2938 2940 3 58.576 0.000 -58.576 -0.000 -0.000 0.000
2941 2937 2938 2985 3 2.928800 -1.464400 0.209200 -1.673600 0.000000 0.000000
2942 2937 2941 2943 4 180.000 43.932 2
2938 2985 2986 2987 3 0.627600 1.882800 0.000000 -2.510400 0.000000 0.000000
2938 2985 2986 2988 3 0.627600 1.882800 0.000000 -2.510400 0.000000 0.000000
2938 2985 2986 3021 3 2.928800 -1.464400 0.209200 -1.673600 0.000000 0.000000
2938 2985 2989 2990 3 2.874410 0.581580 2.092000 -5.547990 0.000000 0.000000
2938 2985 2989 2991 3 2.874410 0.581580 2.092000 -5.547990 0.000000 0.000000
2939 2938 2985 2982 3 0.627600 1.882800 0.000000 -2.510400 0.000000 0.000000
2939 2938 2985 2986 3 0.627600 1.882800 0.000000 -2.510400 0.000000 0.000000
2939 2938 2985 2989 3 0.627600 1.882800 0.000000 -2.510400 0.000000 0.000000
2940 2938 2985 2982 3 0.627600 1.882800 0.000000 -2.510400 0.000000 0.000000
2940 2938 2985 2986 3 0.627600 1.882800 0.000000 -2.510400 0.000000 0.000000
2940 2938 2985 2989 3 0.627600 1.882800 0.000000 -2.510400 0.000000 0.000000
2981 2982 2985 2938 3 0.627600 1.882800 0.000000 -2.510400 0.000000 0.000000
2983 2982 2985 2938 3 0.627600 1.882800 0.000000 -2.510400 0.000000 0.000000
2984 2982 2985 2938 3 0.627600 1.882800 0.000000 -2.510400 0.000000 0.000000
2941 2943 2944 2945 3 0.414 1.243 0.000 -1.657 -0.000 0.000
2941 2943 2944 2946 3 0.414 1.243 0.000 -1.657 -0.000 0.000
2941 2943 2944 2947 3 -2.197 5.201 0.527 -3.531 -0.000 0.000
2942 2941 2943 2944 3 21.439 0.000 -21.439 -0.000 -0.000 0.000
2943 2944 2947 2948 3 0.979 2.937 0.000 -3.916 -0.000 0.000
2943 2944 2947 2949 3 0.979 2.937 0.000 -3.916 -0.000 0.000
2943 2944 2947 2950 3 2.874 0.582 2.092 -5.548 -0.000 0.000
2944 2947 2950 2951 3 0.628 1.883 0.000 -2.510 -0.000 0.000
2944 2947 2950 2952 3 0.628 1.883 0.000 -2.510 -0.000 0.000
2944 2947 2950 2953 3 2.301 -1.464 0.837 -1.674 -0.000 0.000
2945 2944 2947 2948 3 0.628 1.883 0.000 -2.510 -0.000 0.000
2945 2944 2947 2949 3 0.628 1.883 0.000 -2.510 -0.000 0.000
2945 2944 2947 2950 3 0.628 1.883 0.000 -2.510 -0.000 0.000
2946 2944 2947 2948 3 0.628 1.883 0.000 -2.510 -0.000 0.000
2946 2944 2947 2949 3 0.628 1.883 0.000 -2.510 -0.000 0.000
2946 2944 2947 2950 3 0.628 1.883 0.000 -2.510 -0.000 0.000
2947 2950 2953 2954 3 0.628 1.883 0.000 -2.510 -0.000 0.000
2947 2950 2953 2955 3 0.628 1.883 0.000 -2.510 -0.000 0.000
2947 2950 2953 2956 3 2.301 -1.464 0.837 -1.674 -0.000 0.000
2948 2947 2950 2951 3 0.628 1.883 0.000 -2.510 -0.000 0.000
2948 2947 2950 2952 3 0.628 1.883 0.000 -2.510 -0.000 0.000
2948 2947 2950 2953 3 0.628 1.883 0.000 -2.510 -0.000 0.000
2949 2947 2950 2951 3 0.628 1.883 0.000 -2.510 -0.000 0.000
2949 2947 2950 2952 3 0.628 1.883 0.000 -2.510 -0.000 0.000
2949 2947 2950 2953 3 0.628 1.883 0.000 -2.510 -0.000 0.000
2950 2953 2956 2957 3 0.628 1.883 0.000 -2.510 -0.000 0.000
2950 2953 2956 2958 3 0.628 1.883 0.000 -2.510 -0.000 0.000
2950 2953 2956 2959 3 2.301 -1.464 0.837 -1.674 -0.000 0.000
2951 2950 2953 2954 3 0.628 1.883 0.000 -2.510 -0.000 0.000
2951 2950 2953 2955 3 0.628 1.883 0.000 -2.510 -0.000 0.000
2951 2950 2953 2956 3 0.628 1.883 0.000 -2.510 -0.000 0.000
2952 2950 2953 2954 3 0.628 1.883 0.000 -2.510 -0.000 0.000
2952 2950 2953 2955 3 0.628 1.883 0.000 -2.510 -0.000 0.000
2952 2950 2953 2956 3 0.628 1.883 0.000 -2.510 -0.000 0.000
2953 2956 2959 2960 3 0.628 1.883 0.000 -2.510 -0.000 0.000
2953 2956 2959 2961 3 0.628 1.883 0.000 -2.510 -0.000 0.000
2953 2956 2959 2962 3 2.301 -1.464 0.837 -1.674 -0.000 0.000
2954 2953 2956 2957 3 0.628 1.883 0.000 -2.510 -0.000 0.000
2954 2953 2956 2958 3 0.628 1.883 0.000 -2.510 -0.000 0.000
2954 2953 2956 2959 3 0.628 1.883 0.000 -2.510 -0.000 0.000
2955 2953 2956 2957 3 0.628 1.883 0.000 -2.510 -0.000 0.000
2955 2953 2956 2958 3 0.628 1.883 0.000 -2.510 -0.000 0.000
2955 2953 2956 2959 3 0.628 1.883 0.000 -2.510 -0.000 0.000
2956 2959 2962 2963 3 0.628 1.883 0.000 -2.510 -0.000 0.000
2956 2959 2962 2964 3 0.628 1.883 0.000 -2.510 -0.000 0.000
2956 2959 2962 2965 3 2.301 -1.464 0.837 -1.674 -0.000 0.000
2957 2956 2959 2960 3 0.628 1.883 0.000 -2.510 -0.000 0.000
2957 2956 2959 2961 3 0.628 1.883 0.000 -2.510 -0.000 0.000
2957 2956 2959 2962 3 0.628 1.883 0.000 -2.510 -0.000 0.000
2958 2956 2959 2960 3 0.628 1.883 0.000 -2.510 -0.000 0.000
2958 2956 2959 2961 3 0.628 1.883 0.000 -2.510 -0.000 0.000
2958 2956 2959 2962 3 0.628 1.883 0.000 -2.510 -0.000 0.000
2959 2962 2965 2966 3 0.628 1.883 0.000 -2.510 -0.000 0.000
2959 2962 2965 2967 3 0.628 1.883 0.000 -2.510 -0.000 0.000
2959 2962 2965 2968 3 2.301 -1.464 0.837 -1.674 -0.000 0.000
2960 2959 2962 2963 3 0.628 1.883 0.000 -2.510 -0.000 0.000
2960 2959 2962 2964 3 0.628 1.883 0.000 -2.510 -0.000 0.000
2960 2959 2962 2965 3 0.628 1.883 0.000 -2.510 -0.000 0.000
2961 2959 2962 2963 3 0.628 1.883 0.000 -2.510 -0.000 0.000
2961 2959 2962 2964 3 0.628 1.883 0.000 -2.510 -0.000 0.000
2961 2959 2962 2965 3 0.628 1.883 0.000 -2.510 -0.000 0.000
2962 2965 2968 2969 3 0.628 1.883 0.000 -2.510 -0.000 0.000
2962 2965 2968 2970 3 0.628 1.883 0.000 -2.510 -0.000 0.000
2962 2965 2968 2971 3 2.301 -1.464 0.837 -1.674 -0.000 0.000
2963 2962 2965 2966 3 0.628 1.883 0.000 -2.510 -0.000 0.000
2963 2962 2965 2967 3 0.628 1.883 0.000 -2.510 -0.000 0.000
2963 2962 2965 2968 3 0.628 1.883 0.000 -2.510 -0.000 0.000
2964 2962 2965 2966 3 0.628 1.883 0.000 -2.510 -0.000 0.000
2964 2962 2965 2967 3 0.628 1.883 0.000 -2.510 -0.000 0.000
2964 2962 2965 2968 3 0.628 1.883 0.000 -2.510 -0.000 0.000
2965 2968 2971 2972 3 0.628 1.883 0.000 -2.510 -0.000 0.000
2965 2968 2971 2973 3 0.628 1.883 0.000 -2.510 -0.000 0.000
2965 2968 2971 2974 3 2.301 -1.464 0.837 -1.674 -0.000 0.000
2966 2965 2968 2969 3 0.628 1.883 0.000 -2.510 -0.000 0.000
2966 2965 2968 2970 3 0.628 1.883 0.000 -2.510 -0.000 0.000
2966 2965 2968 2971 3 0.628 1.883 0.000 -2.510 -0.000 0.000
2967 2965 2968 2969 3 0.628 1.883 0.000 -2.510 -0.000 0.000
2967 2965 2968 2970 3 0.628 1.883 0.000 -2.510 -0.000 0.000
2967 2965 2968 2971 3 0.628 1.883 0.000 -2.510 -0.000 0.000
2968 2971 2974 2975 3 0.628 1.883 0.000 -2.510 -0.000 0.000
2968 2971 2974 2976 3 0.628 1.883 0.000 -2.510 -0.000 0.000
2968 2971 2974 2977 3 2.301 -1.464 0.837 -1.674 -0.000 0.000
2969 2968 2971 2972 3 0.628 1.883 0.000 -2.510 -0.000 0.000
2969 2968 2971 2973 3 0.628 1.883 0.000 -2.510 -0.000 0.000
2969 2968 2971 2974 3 0.628 1.883 0.000 -2.510 -0.000 0.000
2970 2968 2971 2972 3 0.628 1.883 0.000 -2.510 -0.000 0.000
2970 2968 2971 2973 3 0.628 1.883 0.000 -2.510 -0.000 0.000
2970 2968 2971 2974 3 0.628 1.883 0.000 -2.510 -0.000 0.000
2971 2974 2977 2978 3 0.628 1.883 0.000 -2.510 -0.000 0.000
2971 2974 2977 2979 3 0.628 1.883 0.000 -2.510 -0.000 0.000
2971 2974 2977 2980 3 0.628 1.883 0.000 -2.510 -0.000 0.000
2972 2971 2974 2975 3 0.628 1.883 0.000 -2.510 -0.000 0.000
2972 2971 2974 2976 3 0.628 1.883 0.000 -2.510 -0.000 0.000
2972 2971 2974 2977 3 0.628 1.883 0.000 -2.510 -0.000 0.000
2973 2971 2974 2975 3 0.628 1.883 0.000 -2.510 -0.000 0.000
2973 2971 2974 2976 3 0.628 1.883 0.000 -2.510 -0.000 0.000
2973 2971 2974 2977 3 0.628 1.883 0.000 -2.510 -0.000 0.000
2975 2974 2977 2978 3 0.628 1.883 0.000 -2.510 -0.000 0.000
2975 2974 2977 2979 3 0.628 1.883 0.000 -2.510 -0.000 0.000
2975 2974 2977 2980 3 0.628 1.883 0.000 -2.510 -0.000 0.000
2976 2974 2977 2978 3 0.628 1.883 0.000 -2.510 -0.000 0.000
2976 2974 2977 2979 3 0.628 1.883 0.000 -2.510 -0.000 0.000
2976 2974 2977 2980 3 0.628 1.883 0.000 -2.510 -0.000 0.000
2981 2982 2985 2986 3 -0.778 -2.335 0.000 3.113 -0.000 0.000
2981 2982 2985 2989 3 -0.778 -2.335 0.000 3.113 -0.000 0.000
2982 2985 2986 2987 3 58.576 0.000 -58.576 -0.000 -0.000 0.000
2982 2985 2986 2988 3 58.576 0.000 -58.576 -0.000 -0.000 0.000
2982 2985 2986 3021 3 2.928800 -1.464400 0.209200 -1.673600 0.000000 0.000000
2982 2985 2989 2990 3 1.789 -5.052 -0.962 4.226 -0.000 0.000
2982 2985 2989 2991 3 1.789 -5.052 -0.962 4.226 -0.000 0.000
2983 2982 2985 2986 3 -0.778 -2.335 0.000 3.113 -0.000 0.000
2983 2982 2985 2989 3 -0.778 -2.335 0.000 3.113 -0.000 0.000
2984 2982 2985 2986 3 -0.778 -2.335 0.000 3.113 -0.000 0.000
2984 2982 2985 2989 3 -0.778 -2.335 0.000 3.113 -0.000 0.000
2986 2982 2985 2989 4 180.000 10.460 2
2985 2986 3021 3018 3 2.928800 -1.464400 0.209200 -1.673600 0.000000 0.000000
2985 2986 3021 3022 3 2.928800 -1.464400 0.209200 -1.673600 0.000000 0.000000
2985 2986 3021 3025 3 2.928800 -1.464400 0.209200 -1.673600 0.000000 0.000000
2985 2989 2991 2992 3 31.206 -9.768 -21.439 -0.000 -0.000 0.000
2986 2985 2989 2990 3 30.334 -5.230 -25.104 -0.000 -0.000 0.000
2986 2985 2989 2991 3 -5.858 -6.694 12.552 -0.000 -0.000 0.000
2987 2985 2986 2988 4 180.000 10.460 2
2989 2985 2986 2987 3 58.576 0.000 -58.576 -0.000 -0.000 0.000
2989 2985 2986 2988 3 58.576 0.000 -58.576 -0.000 -0.000 0.000
2989 2985 2986 3021 3 2.928800 -1.464400 0.209200 -1.673600 0.000000 0.000000
2990 2985 2989 2991 4 180.000 43.932 2
2986 3021 3022 3023 3 0.627600 1.882800 0.000000 -2.510400 0.000000 0.000000
2986 3021 3022 3024 3 0.627600 1.882800 0.000000 -2.510400 0.000000 0.000000
2986 3021 3022 3069 3 2.928800 -1.464400 0.209200 -1.673600 0.000000 0.000000
2986 3021 3025 3026 3 2.874410 0.581580 2.092000 -5.547990 0.000000 0.000000
2986 3021 3025 3027 3 2.874410 0.581580 2.092000 -5.547990 0.000000 0.000000
2987 2986 3021 3018 3 0.627600 1.882800 0.000000 -2.510400 0.000000 0.000000
2987 2986 3021 3022 3 0.627600 1.882800 0.000000 -2.510400 0.000000 0.000000
2987 2986 3021 3025 3 0.627600 1.882800 0.000000 -2.510400 0.000000 0.000000
2988 2986 3021 3018 3 0.627600 1.882800 0.000000 -2.510400 0.000000 0.000000
2988 2986 3021 3022 3 0.627600 1.882800 0.000000 -2.510400 0.000000 0.000000
2988 2986 3021 3025 3 0.627600 1.882800 0.000000 -2.510400 0.000000 0.000000
3017 3018 3021 2986 3 0.627600 1.882800 0.000000 -2.510400 0.000000 0.000000
3019 3018 3021 2986 3 0.627600 1.882800 0.000000 -2.510400 0.000000 0.000000
3020 3018 3021 2986 3 0.627600 1.882800 0.000000 -2.510400 0.000000 0.000000
2989 2991 2992 2993 3 0.414 1.243 0.000 -1.657 -0.000 0.000
2989 2991 2992 2994 3 0.414 1.243 0.000 -1.657 -0.000 0.000
2989 2991 2992 2995 3 -2.197 5.201 0.527 -3.531 -0.000 0.000
2990 2989 2991 2992 3 21.439 0.000 -21.439 -0.000 -0.000 0.000
2991 2992 2995 2996 3 0.979 2.937 0.000 -3.916 -0.000 0.000
2991 2992 2995 2997 3 2.874 0.582 2.092 -5.548 -0.000 0.000
2991 2992 2995 3004 3 2.874 0.582 2.092 -5.548 -0.000 0.000
2992 2995 2997 2998 3 0.628 1.883 0.000 -2.510 -0.000 0.000
2992 2995 2997 2999 3 0.628 1.883 0.000 -2.510 -0.000 0.000
2992 2995 2997 3000 3 2.301 -1.464 0.837 -1.674 -0.000 0.000
2992 2995 3004 3005 3 0.628 1.883 0.000 -2.510 -0.000 0.000
2992 2995 3004 3006 3 0.628 1.883 0.000 -2.510 -0.000 0.000
2992 2995 3004 3007 3 2.301 -1.464 0.837 -1.674 -0.000 0.000
2993 2992 2995 2996 3 0.628 1.883 0.000 -2.510 -0.000 0.000
2993 2992 2995 2997 3 0.628 1.883 0.000 -2.510 -0.000 0.000
2993 2992 2995 3004 3 0.628 1.883 0.000 -2.510 -0.000 0.000
2994 2992 2995 2996 3 0.628 1.883 0.000 -2.510 -0.000 0.000
2994 2992 2995 2997 3 0.628 1.883 0.000 -2.510 -0.000 0.000
2994 2992 2995 3004 3 0.628 1.883 0.000 -2.510 -0.000 0.000
2995 2997 3000 3001 3 0.628 1.883 0.000 -2.510 -0.000 0.000
2995 2997 3000 3002 3 0.628 1.883 0.000 -2.510 -0.000 0.000
2995 2997 3000 3003 3 0.628 1.883 0.000 -2.510 -0.000 0.000
2995 3004 3007 3008 3 0.628 1.883 0.000 -2.510 -0.000 0.000
2995 3004 3007 3009 3 0.628 1.883 0.000 -2.510 -0.000 0.000
2995 3004 3007 3010 3 2.301 -1.464 0.837 -1.674 -0.000 0.000
2996 2995 2997 2998 3 0.628 1.883 0.000 -2.510 -0.000 0.000
2996 2995 2997 2999 3 0.628 1.883 0.000 -2.510 -0.000 0.000
2996 2995 2997 3000 3 0.628 1.883 0.000 -2.510 -0.000 0.000
2996 2995 3004 3005 3 0.628 1.883 0.000 -2.510 -0.000 0.000
2996 2995 3004 3006 3 0.628 1.883 0.000 -2.510 -0.000 0.000
2996 2995 3004 3007 3 0.628 1.883 0.000 -2.510 -0.000 0.000
2997 2995 3004 3005 3 0.628 1.883 0.000 -2.510 -0.000 0.000
2997 2995 3004 3006 3 0.628 1.883 0.000 -2.510 -0.000 0.000
2997 2995 3004 3007 3 2.301 -1.464 0.837 -1.674 -0.000 0.000
3004 2995 2997 2998 3 0.628 1.883 0.000 -2.510 -0.000 0.000
3004 2995 2997 2999 3 0.628 1.883 0.000 -2.510 -0.000 0.000
3004 2995 2997 3000 3 2.301 -1.464 0.837 -1.674 -0.000 0.000
2998 2997 3000 3001 3 0.628 1.883 0.000 -2.510 -0.000 0.000
2998 2997 3000 3002 3 0.628 1.883 0.000 -2.510 -0.000 0.000
2998 2997 3000 3003 3 0.628 1.883 0.000 -2.510 -0.000 0.000
2999 2997 3000 3001 3 0.628 1.883 0.000 -2.510 -0.000 0.000
2999 2997 3000 3002 3 0.628 1.883 0.000 -2.510 -0.000 0.000
2999 2997 3000 3003 3 0.628 1.883 0.000 -2.510 -0.000 0.000
3004 3007 3010 3011 3 0.628 1.883 0.000 -2.510 -0.000 0.000
3004 3007 3010 3012 3 0.628 1.883 0.000 -2.510 -0.000 0.000
3004 3007 3010 3013 3 2.301 -1.464 0.837 -1.674 -0.000 0.000
3005 3004 3007 3008 3 0.628 1.883 0.000 -2.510 -0.000 0.000
3005 3004 3007 3009 3 0.628 1.883 0.000 -2.510 -0.000 0.000
3005 3004 3007 3010 3 0.628 1.883 0.000 -2.510 -0.000 0.000
3006 3004 3007 3008 3 0.628 1.883 0.000 -2.510 -0.000 0.000
3006 3004 3007 3009 3 0.628 1.883 0.000 -2.510 -0.000 0.000
3006 3004 3007 3010 3 0.628 1.883 0.000 -2.510 -0.000 0.000
3007 3010 3013 3014 3 0.628 1.883 0.000 -2.510 -0.000 0.000
3007 3010 3013 3015 3 0.628 1.883 0.000 -2.510 -0.000 0.000
3007 3010 3013 3016 3 0.628 1.883 0.000 -2.510 -0.000 0.000
3008 3007 3010 3011 3 0.628 1.883 0.000 -2.510 -0.000 0.000
3008 3007 3010 3012 3 0.628 1.883 0.000 -2.510 -0.000 0.000
3008 3007 3010 3013 3 0.628 1.883 0.000 -2.510 -0.000 0.000
3009 3007 3010 3011 3 0.628 1.883 0.000 -2.510 -0.000 0.000
3009 3007 3010 3012 3 0.628 1.883 0.000 -2.510 -0.000 0.000
3009 3007 3010 3013 3 0.628 1.883 0.000 -2.510 -0.000 0.000
3011 3010 3013 3014 3 0.628 1.883 0.000 -2.510 -0.000 0.000
3011 3010 3013 3015 3 0.628 1.883 0.000 -2.510 -0.000 0.000
3011 3010 3013 3016 3 0.628 1.883 0.000 -2.510 -0.000 0.000
3012 3010 3013 3014 3 0.628 1.883 0.000 -2.510 -0.000 0.000
3012 3010 3013 3015 3 0.628 1.883 0.000 -2.510 -0.000 0.000
3012 3010 3013 3016 3 0.628 1.883 0.000 -2.510 -0.000 0.000
3017 3018 3021 3022 3 -0.778 -2.335 0.000 3.113 -0.000 0.000
3017 3018 3021 3025 3 -0.778 -2.335 0.000 3.113 -0.000 0.000
3018 3021 3022 3023 3 58.576 0.000 -58.576 -0.000 -0.000 0.000
3018 3021 3022 3024 3 58.576 0.000 -58.576 -0.000 -0.000 0.000
3018 3021 3022 3069 3 2.928800 -1.464400 0.209200 -1.673600 0.000000 0.000000
3018 3021 3025 3026 3 1.789 -5.052 -0.962 4.226 -0.000 0.000
3018 3021 3025 3027 3 1.789 -5.052 -0.962 4.226 -0.000 0.000
3019 3018 3021 3022 3 -0.778 -2.335 0.000 3.113 -0.000 0.000
3019 3018 3021 3025 3 -0.778 -2.335 0.000 3.113 -0.000 0.000
3020 3018 3021 3022 3 -0.778 -2.335 0.000 3.113 -0.000 0.000
3020 3018 3021 3025 3 -0.778 -2.335 0.000 3.113 -0.000 0.000
3022 3018 3021 3025 4 180.000 10.460 2
3021 3022 3069 3066 3 2.928800 -1.464400 0.209200 -1.673600 0.000000 0.000000
3021 3022 3069 3070 3 2.928800 -1.464400 0.209200 -1.673600 0.000000 0.000000
3021 3022 3069 3073 3 2.928800 -1.464400 0.209200 -1.673600 0.000000 0.000000
3021 3025 3027 3028 3 31.206 -9.768 -21.439 -0.000 -0.000 0.000
3022 3021 3025 3026 3 30.334 -5.230 -25.104 -0.000 -0.000 0.000
3022 3021 3025 3027 3 -5.858 -6.694 12.552 -0.000 -0.000 0.000
3023 3021 3022 3024 4 180.000 10.460 2
3025 3021 3022 3023 3 58.576 0.000 -58.576 -0.000 -0.000 0.000
3025 3021 3022 3024 3 58.576 0.000 -58.576 -0.000 -0.000 0.000
3025 3021 3022 3069 3 2.928800 -1.464400 0.209200 -1.673600 0.000000 0.000000
3026 3021 3025 3027 4 180.000 43.932 2
3022 3069 3070 3071 3 0.627600 1.882800 0.000000 -2.510400 0.000000 0.000000
3022 3069 3070 3072 3 0.627600 1.882800 0.000000 -2.510400 0.000000 0.000000
3022 3069 3070 3135 3 2.928800 -1.464400 0.209200 -1.673600 0.000000 0.000000
3022 3069 3073 3074 3 2.874410 0.581580 2.092000 -5.547990 0.000000 0.000000
3022 3069 3073 3075 3 2.874410 0.581580 2.092000 -5.547990 0.000000 0.000000
3023 3022 3069 3066 3 0.627600 1.882800 0.000000 -2.510400 0.000000 0.000000
3023 3022 3069 3070 3 0.627600 1.882800 0.000000 -2.510400 0.000000 0.000000
3023 3022 3069 3073 3 0.627600 1.882800 0.000000 -2.510400 0.000000 0.000000
3024 3022 3069 3066 3 0.627600 1.882800 0.000000 -2.510400 0.000000 0.000000
3024 3022 3069 3070 3 0.627600 1.882800 0.000000 -2.510400 0.000000 0.000000
3024 3022 3069 3073 3 0.627600 1.882800 0.000000 -2.510400 0.000000 0.000000
3065 3066 3069 3022 3 0.627600 1.882800 0.000000 -2.510400 0.000000 0.000000
3067 3066 3069 3022 3 0.627600 1.882800 0.000000 -2.510400 0.000000 0.000000
3068 3066 3069 3022 3 0.627600 1.882800 0.000000 -2.510400 0.000000 0.000000
3025 3027 3028 3029 3 0.414 1.243 0.000 -1.657 -0.000 0.000
3025 3027 3028 3030 3 0.414 1.243 0.000 -1.657 -0.000 0.000
3025 3027 3028 3031 3 -2.197 5.201 0.527 -3.531 -0.000 0.000
3026 3025 3027 3028 3 21.439 0.000 -21.439 -0.000 -0.000 0.000
3027 3028 3031 3032 3 0.979 2.937 0.000 -3.916 -0.000 0.000
3027 3028 3031 3033 3 0.979 2.937 0.000 -3.916 -0.000 0.000
3027 3028 3031 3034 3 2.874 0.582 2.092 -5.548 -0.000 0.000
3028 3031 3034 3035 3 0.628 1.883 0.000 -2.510 -0.000 0.000
3028 3031 3034 3036 3 0.628 1.883 0.000 -2.510 -0.000 0.000
3028 3031 3034 3037 3 2.301 -1.464 0.837 -1.674 -0.000 0.000
3029 3028 3031 3032 3 0.628 1.883 0.000 -2.510 -0.000 0.000
3029 3028 3031 3033 3 0.628 1.883 0.000 -2.510 -0.000 0.000
3029 3028 3031 3034 3 0.628 1.883 0.000 -2.510 -0.000 0.000
3030 3028 3031 3032 3 0.628 1.883 0.000 -2.510 -0.000 0.000
3030 3028 3031 3033 3 0.628 1.883 0.000 -2.510 -0.000 0.000
3030 3028 3031 3034 3 0.628 1.883 0.000 -2.510 -0.000 0.000
3031 3034 3037 3038 3 0.628 1.883 0.000 -2.510 -0.000 0.000
3031 3034 3037 3039 3 0.628 1.883 0.000 -2.510 -0.000 0.000
3031 3034 3037 3040 3 2.301 -1.464 0.837 -1.674 -0.000 0.000
3032 3031 3034 3035 3 0.628 1.883 0.000 -2.510 -0.000 0.000
3032 3031 3034 3036 3 0.628 1.883 0.000 -2.510 -0.000 0.000
3032 3031 3034 3037 3 0.628 1.883 0.000 -2.510 -0.000 0.000
3033 3031 3034 3035 3 0.628 1.883 0.000 -2.510 -0.000 0.000
3033 3031 3034 3036 3 0.628 1.883 0.000 -2.510 -0.000 0.000
3033 3031 3034 3037 3 0.628 1.883 0.000 -2.510 -0.000 0.000
3034 3037 3040 3041 3 0.628 1.883 0.000 -2.510 -0.000 0.000
3034 3037 3040 3042 3 0.628 1.883 0.000 -2.510 -0.000 0.000
3034 3037 3040 3043 3 2.301 -1.464 0.837 -1.674 -0.000 0.000
3035 3034 3037 3038 3 0.628 1.883 0.000 -2.510 -0.000 0.000
3035 3034 3037 3039 3 0.628 1.883 0.000 -2.510 -0.000 0.000
3035 3034 3037 3040 3 0.628 1.883 0.000 -2.510 -0.000 0.000
3036 3034 3037 3038 3 0.628 1.883 0.000 -2.510 -0.000 0.000
3036 3034 3037 3039 3 0.628 1.883 0.000 -2.510 -0.000 0.000
3036 3034 3037 3040 3 0.628 1.883 0.000 -2.510 -0.000 0.000
3037 3040 3043 3044 3 0.628 1.883 0.000 -2.510 -0.000 0.000
3037 3040 3043 3045 3 0.628 1.883 0.000 -2.510 -0.000 0.000
3037 3040 3043 3046 3 2.301 -1.464 0.837 -1.674 -0.000 0.000
3038 3037 3040 3041 3 0.628 1.883 0.000 -2.510 -0.000 0.000
3038 3037 3040 3042 3 0.628 1.883 0.000 -2.510 -0.000 0.000
3038 3037 3040 3043 3 0.628 1.883 0.000 -2.510 -0.000 0.000
3039 3037 3040 3041 3 0.628 1.883 0.000 -2.510 -0.000 0.000
3039 3037 3040 3042 3 0.628 1.883 0.000 -2.510 -0.000 0.000
3039 3037 3040 3043 3 0.628 1.883 0.000 -2.510 -0.000 0.000
3040 3043 3046 3047 3 0.628 1.883 0.000 -2.510 -0.000 0.000
3040 3043 3046 3048 3 0.628 1.883 0.000 -2.510 -0.000 0.000
3040 3043 3046 3049 3 2.301 -1.464 0.837 -1.674 -0.000 0.000
3041 3040 3043 3044 3 0.628 1.883 0.000 -2.510 -0.000 0.000
3041 3040 3043 3045 3 0.628 1.883 0.000 -2.510 -0.000 0.000
3041 3040 3043 3046 3 0.628 1.883 0.000 -2.510 -0.000 0.000
3042 3040 3043 3044 3 0.628 1.883 0.000 -2.510 -0.000 0.000
3042 3040 3043 3045 3 0.628 1.883 0.000 -2.510 -0.000 0.000
3042 3040 3043 3046 3 0.628 1.883 0.000 -2.510 -0.000 0.000
3043 3046 3049 3050 3 0.628 1.883 0.000 -2.510 -0.000 0.000
3043 3046 3049 3051 3 0.628 1.883 0.000 -2.510 -0.000 0.000
3043 3046 3049 3052 3 2.301 -1.464 0.837 -1.674 -0.000 0.000
3044 3043 3046 3047 3 0.628 1.883 0.000 -2.510 -0.000 0.000
3044 3043 3046 3048 3 0.628 1.883 0.000 -2.510 -0.000 0.000
3044 3043 3046 3049 3 0.628 1.883 0.000 -2.510 -0.000 0.000
3045 3043 3046 3047 3 0.628 1.883 0.000 -2.510 -0.000 0.000
3045 3043 3046 3048 3 0.628 1.883 0.000 -2.510 -0.000 0.000
3045 3043 3046 3049 3 0.628 1.883 0.000 -2.510 -0.000 0.000
3046 3049 3052 3053 3 0.628 1.883 0.000 -2.510 -0.000 0.000
3046 3049 3052 3054 3 0.628 1.883 0.000 -2.510 -0.000 0.000
3046 3049 3052 3055 3 2.301 -1.464 0.837 -1.674 -0.000 0.000
3047 3046 3049 3050 3 0.628 1.883 0.000 -2.510 -0.000 0.000
3047 3046 3049 3051 3 0.628 1.883 0.000 -2.510 -0.000 0.000
3047 3046 3049 3052 3 0.628 1.883 0.000 -2.510 -0.000 0.000
3048 3046 3049 3050 3 0.628 1.883 0.000 -2.510 -0.000 0.000
3048 3046 3049 3051 3 0.628 1.883 0.000 -2.510 -0.000 0.000
3048 3046 3049 3052 3 0.628 1.883 0.000 -2.510 -0.000 0.000
3049 3052 3055 3056 3 0.628 1.883 0.000 -2.510 -0.000 0.000
3049 3052 3055 3057 3 0.628 1.883 0.000 -2.510 -0.000 0.000
3049 3052 3055 3058 3 2.301 -1.464 0.837 -1.674 -0.000 0.000
3050 3049 3052 3053 3 0.628 1.883 0.000 -2.510 -0.000 0.000
3050 3049 3052 3054 3 0.628 1.883 0.000 -2.510 -0.000 0.000
3050 3049 3052 3055 3 0.628 1.883 0.000 -2.510 -0.000 0.000
3051 3049 3052 3053 3 0.628 1.883 0.000 -2.510 -0.000 0.000
3051 3049 3052 3054 3 0.628 1.883 0.000 -2.510 -0.000 0.000
3051 3049 3052 3055 3 0.628 1.883 0.000 -2.510 -0.000 0.000
3052 3055 3058 3059 3 0.628 1.883 0.000 -2.510 -0.000 0.000
3052 3055 3058 3060 3 0.628 1.883 0.000 -2.510 -0.000 0.000
3052 3055 3058 3061 3 2.301 -1.464 0.837 -1.674 -0.000 0.000
3053 3052 3055 3056 3 0.628 1.883 0.000 -2.510 -0.000 0.000
3053 3052 3055 3057 3 0.628 1.883 0.000 -2.510 -0.000 0.000
3053 3052 3055 3058 3 0.628 1.883 0.000 -2.510 -0.000 0.000
3054 3052 3055 3056 3 0.628 1.883 0.000 -2.510 -0.000 0.000
3054 3052 3055 3057 3 0.628 1.883 0.000 -2.510 -0.000 0.000
3054 3052 3055 3058 3 0.628 1.883 0.000 -2.510 -0.000 0.000
3055 3058 3061 3062 3 0.628 1.883 0.000 -2.510 -0.000 0.000
3055 3058 3061 3063 3 0.628 1.883 0.000 -2.510 -0.000 0.000
3055 3058 3061 3064 3 0.628 1.883 0.000 -2.510 -0.000 0.000
3056 3055 3058 3059 3 0.628 1.883 0.000 -2.510 -0.000 0.000
3056 3055 3058 3060 3 0.628 1.883 0.000 -2.510 -0.000 0.000
3056 3055 3058 3061 3 0.628 1.883 0.000 -2.510 -0.000 0.000
3057 3055 3058 3059 3 0.628 1.883 0.000 -2.510 -0.000 0.000
3057 3055 3058 3060 3 0.628 1.883 0.000 -2.510 -0.000 0.000
3057 3055 3058 3061 3 0.628 1.883 0.000 -2.510 -0.000 0.000
3059 3058 3061 3062 3 0.628 1.883 0.000 -2.510 -0.000 0.000
3059 3058 3061 3063 3 0.628 1.883 0.000 -2.510 -0.000 0.000
3059 3058 3061 3064 3 0.628 1.883 0.000 -2.510 -0.000 0.000
3060 3058 3061 3062 3 0.628 1.883 0.000 -2.510 -0.000 0.000
3060 3058 3061 3063 3 0.628 1.883 0.000 -2.510 -0.000 0.000
3060 3058 3061 3064 3 0.628 1.883 0.000 -2.510 -0.000 0.000
3065 3066 3069 3070 3 -0.778 -2.335 0.000 3.113 -0.000 0.000
3065 3066 3069 3073 3 -0.778 -2.335 0.000 3.113 -0.000 0.000
3066 3069 3070 3071 3 58.576 0.000 -58.576 -0.000 -0.000 0.000
3066 3069 3070 3072 3 58.576 0.000 -58.576 -0.000 -0.000 0.000
3066 3069 3070 3135 3 2.928800 -1.464400 0.209200 -1.673600 0.000000 0.000000
3066 3069 3073 3074 3 1.789 -5.052 -0.962 4.226 -0.000 0.000
3066 3069 3073 3075 3 1.789 -5.052 -0.962 4.226 -0.000 0.000
3067 3066 3069 3070 3 -0.778 -2.335 0.000 3.113 -0.000 0.000
3067 3066 3069 3073 3 -0.778 -2.335 0.000 3.113 -0.000 0.000
3068 3066 3069 3070 3 -0.778 -2.335 0.000 3.113 -0.000 0.000
3068 3066 3069 3073 3 -0.778 -2.335 0.000 3.113 -0.000 0.000
3070 3066 3069 3073 4 180.000 10.460 2
3069 3070 3135 3132 3 2.928800 -1.464400 0.209200 -1.673600 0.000000 0.000000
3069 3070 3135 3136 3 2.928800 -1.464400 0.209200 -1.673600 0.000000 0.000000
3069 3070 3135 3139 3 2.928800 -1.464400 0.209200 -1.673600 0.000000 0.000000
3069 3073 3075 3076 3 31.206 -9.768 -21.439 -0.000 -0.000 0.000
3070 3069 3073 3074 3 30.334 -5.230 -25.104 -0.000 -0.000 0.000
3070 3069 3073 3075 3 -5.858 -6.694 12.552 -0.000 -0.000 0.000
3071 3069 3070 3072 4 180.000 10.460 2
3073 3069 3070 3071 3 58.576 0.000 -58.576 -0.000 -0.000 0.000
3073 3069 3070 3072 3 58.576 0.000 -58.576 -0.000 -0.000 0.000
3073 3069 3070 3135 3 2.928800 -1.464400 0.209200 -1.673600 0.000000 0.000000
3074 3069 3073 3075 4 180.000 43.932 2
3070 3135 3136 3137 3 0.627600 1.882800 0.000000 -2.510400 0.000000 0.000000
3070 3135 3136 3138 3 0.627600 1.882800 0.000000 -2.510400 0.000000 0.000000
3070 3135 3136 3201 3 2.928800 -1.464400 0.209200 -1.673600 0.000000 0.000000
3070 3135 3139 3140 3 2.874410 0.581580 2.092000 -5.547990 0.000000 0.000000
3070 3135 3139 3141 3 2.874410 0.581580 2.092000 -5.547990 0.000000 0.000000
3071 3070 3135 3132 3 0.627600 1.882800 0.000000 -2.510400 0.000000 0.000000
3071 3070 3135 3136 3 0.627600 1.882800 0.000000 -2.510400 0.000000 0.000000
3071 3070 3135 3139 3 0.627600 1.882800 0.000000 -2.510400 0.000000 0.000000
3072 3070 3135 3132 3 0.627600 1.882800 0.000000 -2.510400 0.000000 0.000000
3072 3070 3135 3136 3 0.627600 1.882800 0.000000 -2.510400 0.000000 0.000000
3072 3070 3135 3139 3 0.627600 1.882800 0.000000 -2.510400 0.000000 0.000000
3131 3132 3135 3070 3 0.627600 1.882800 0.000000 -2.510400 0.000000 0.000000
3133 3132 3135 3070 3 0.627600 1.882800 0.000000 -2.510400 0.000000 0.000000
3134 3132 3135 3070 3 0.627600 1.882800 0.000000 -2.510400 0.000000 0.000000
3073 3075 3076 3077 3 0.414 1.243 0.000 -1.657 -0.000 0.000
3073 3075 3076 3078 3 0.414 1.243 0.000 -1.657 -0.000 0.000
3073 3075 3076 3079 3 -2.197 5.201 0.527 -3.531 -0.000 0.000
3074 3073 3075 3076 3 21.439 0.000 -21.439 -0.000 -0.000 0.000
3075 3076 3079 3080 3 0.979 2.937 0.000 -3.916 -0.000 0.000
3075 3076 3079 3081 3 0.979 2.937 0.000 -3.916 -0.000 0.000
3075 3076 3079 3082 3 2.874 0.582 2.092 -5.548 -0.000 0.000
3076 3079 3082 3083 3 0.628 1.883 0.000 -2.510 -0.000 0.000
3076 3079 3082 3084 3 0.628 1.883 0.000 -2.510 -0.000 0.000
3076 3079 3082 3085 3 2.301 -1.464 0.837 -1.674 -0.000 0.000
3077 3076 3079 3080 3 0.628 1.883 0.000 -2.510 -0.000 0.000
3077 3076 3079 3081 3 0.628 1.883 0.000 -2.510 -0.000 0.000
3077 3076 3079 3082 3 0.628 1.883 0.000 -2.510 -0.000 0.000
3078 3076 3079 3080 3 0.628 1.883 0.000 -2.510 -0.000 0.000
3078 3076 3079 3081 3 0.628 1.883 0.000 -2.510 -0.000 0.000
3078 3076 3079 3082 3 0.628 1.883 0.000 -2.510 -0.000 0.000
3079 3082 3085 3086 3 0.628 1.883 0.000 -2.510 -0.000 0.000
3079 3082 3085 3087 3 0.628 1.883 0.000 -2.510 -0.000 0.000
3079 3082 3085 3088 3 2.301 -1.464 0.837 -1.674 -0.000 0.000
3080 3079 3082 3083 3 0.628 1.883 0.000 -2.510 -0.000 0.000
3080 3079 3082 3084 3 0.628 1.883 0.000 -2.510 -0.000 0.000
3080 3079 3082 3085 3 0.628 1.883 0.000 -2.510 -0.000 0.000
3081 3079 3082 3083 3 0.628 1.883 0.000 -2.510 -0.000 0.000
3081 3079 3082 3084 3 0.628 1.883 0.000 -2.510 -0.000 0.000
3081 3079 3082 3085 3 0.628 1.883 0.000 -2.510 -0.000 0.000
3082 3085 3088 3089 3 0.628 1.883 0.000 -2.510 -0.000 0.000
3082 3085 3088 3090 3 0.628 1.883 0.000 -2.510 -0.000 0.000
3082 3085 3088 3091 3 2.301 -1.464 0.837 -1.674 -0.000 0.000
3083 3082 3085 3086 3 0.628 1.883 0.000 -2.510 -0.000 0.000
3083 3082 3085 3087 3 0.628 1.883 0.000 -2.510 -0.000 0.000
3083 3082 3085 3088 3 0.628 1.883 0.000 -2.510 -0.000 0.000
3084 3082 3085 3086 3 0.628 1.883 0.000 -2.510 -0.000 0.000
3084 3082 3085 3087 3 0.628 1.883 0.000 -2.510 -0.000 0.000
3084 3082 3085 3088 3 0.628 1.883 0.000 -2.510 -0.000 0.000
3085 3088 3091 3092 3 0.628 1.883 0.000 -2.510 -0.000 0.000
3085 3088 3091 3093 3 0.628 1.883 0.000 -2.510 -0.000 0.000
3085 3088 3091 3094 3 2.301 -1.464 0.837 -1.674 -0.000 0.000
3086 3085 3088 3089 3 0.628 1.883 0.000 -2.510 -0.000 0.000
3086 3085 3088 3090 3 0.628 1.883 0.000 -2.510 -0.000 0.000
3086 3085 3088 3091 3 0.628 1.883 0.000 -2.510 -0.000 0.000
3087 3085 3088 3089 3 0.628 1.883 0.000 -2.510 -0.000 0.000
3087 3085 3088 3090 3 0.628 1.883 0.000 -2.510 -0.000 0.000
3087 3085 3088 3091 3 0.628 1.883 0.000 -2.510 -0.000 0.000
3088 3091 3094 3095 3 0.628 1.883 0.000 -2.510 -0.000 0.000
3088 3091 3094 3096 3 0.628 1.883 0.000 -2.510 -0.000 0.000
3088 3091 3094 3097 3 2.301 -1.464 0.837 -1.674 -0.000 0.000
3089 3088 3091 3092 3 0.628 1.883 0.000 -2.510 -0.000 0.000
3089 3088 3091 3093 3 0.628 1.883 0.000 -2.510 -0.000 0.000
3089 3088 3091 3094 3 0.628 1.883 0.000 -2.510 -0.000 0.000
3090 3088 3091 3092 3 0.628 1.883 0.000 -2.510 -0.000 0.000
3090 3088 3091 3093 3 0.628 1.883 0.000 -2.510 -0.000 0.000
3090 3088 3091 3094 3 0.628 1.883 0.000 -2.510 -0.000 0.000
3091 3094 3097 3098 3 0.628 1.883 0.000 -2.510 -0.000 0.000
3091 3094 3097 3099 3 0.628 1.883 0.000 -2.510 -0.000 0.000
3091 3094 3097 3100 3 2.301 -1.464 0.837 -1.674 -0.000 0.000
3092 3091 3094 3095 3 0.628 1.883 0.000 -2.510 -0.000 0.000
3092 3091 3094 3096 3 0.628 1.883 0.000 -2.510 -0.000 0.000
3092 3091 3094 3097 3 0.628 1.883 0.000 -2.510 -0.000 0.000
3093 3091 3094 3095 3 0.628 1.883 0.000 -2.510 -0.000 0.000
3093 3091 3094 3096 3 0.628 1.883 0.000 -2.510 -0.000 0.000
3093 3091 3094 3097 3 0.628 1.883 0.000 -2.510 -0.000 0.000
3094 3097 3100 3101 3 0.628 1.883 0.000 -2.510 -0.000 0.000
3094 3097 3100 3102 3 0.628 1.883 0.000 -2.510 -0.000 0.000
3094 3097 3100 3103 3 2.301 -1.464 0.837 -1.674 -0.000 0.000
3095 3094 3097 3098 3 0.628 1.883 0.000 -2.510 -0.000 0.000
3095 3094 3097 3099 3 0.628 1.883 0.000 -2.510 -0.000 0.000
3095 3094 3097 3100 3 0.628 1.883 0.000 -2.510 -0.000 0.000
3096 3094 3097 3098 3 0.628 1.883 0.000 -2.510 -0.000 0.000
3096 3094 3097 3099 3 0.628 1.883 0.000 -2.510 -0.000 0.000
3096 3094 3097 3100 3 0.628 1.883 0.000 -2.510 -0.000 0.000
3097 3100 3103 3104 3 0.628 1.883 0.000 -2.510 -0.000 0.000
3097 3100 3103 3105 3 0.628 1.883 0.000 -2.510 -0.000 0.000
3097 3100 3103 3106 3 2.301 -1.464 0.837 -1.674 -0.000 0.000
3098 3097 3100 3101 3 0.628 1.883 0.000 -2.510 -0.000 0.000
3098 3097 3100 3102 3 0.628 1.883 0.000 -2.510 -0.000 0.000
3098 3097 3100 3103 3 0.628 1.883 0.000 -2.510 -0.000 0.000
3099 3097 3100 3101 3 0.628 1.883 0.000 -2.510 -0.000 0.000
3099 3097 3100 3102 3 0.628 1.883 0.000 -2.510 -0.000 0.000
3099 3097 3100 3103 3 0.628 1.883 0.000 -2.510 -0.000 0.000
3100 3103 3106 3107 3 0.628 1.883 0.000 -2.510 -0.000 0.000
3100 3103 3106 3108 3 0.628 1.883 0.000 -2.510 -0.000 0.000
3100 3103 3106 3109 3 2.301 -1.464 0.837 -1.674 -0.000 0.000
3101 3100 3103 3104 3 0.628 1.883 0.000 -2.510 -0.000 0.000
3101 3100 3103 3105 3 0.628 1.883 0.000 -2.510 -0.000 0.000
3101 3100 3103 3106 3 0.628 1.883 0.000 -2.510 -0.000 0.000
3102 3100 3103 3104 3 0.628 1.883 0.000 -2.510 -0.000 0.000
3102 3100 3103 3105 3 0.628 1.883 0.000 -2.510 -0.000 0.000
3102 3100 3103 3106 3 0.628 1.883 0.000 -2.510 -0.000 0.000
3103 3106 3109 3110 3 0.628 1.883 0.000 -2.510 -0.000 0.000
3103 3106 3109 3111 3 0.628 1.883 0.000 -2.510 -0.000 0.000
3103 3106 3109 3112 3 2.301 -1.464 0.837 -1.674 -0.000 0.000
3104 3103 3106 3107 3 0.628 1.883 0.000 -2.510 -0.000 0.000
3104 3103 3106 3108 3 0.628 1.883 0.000 -2.510 -0.000 0.000
3104 3103 3106 3109 3 0.628 1.883 0.000 -2.510 -0.000 0.000
3105 3103 3106 3107 3 0.628 1.883 0.000 -2.510 -0.000 0.000
3105 3103 3106 3108 3 0.628 1.883 0.000 -2.510 -0.000 0.000
3105 3103 3106 3109 3 0.628 1.883 0.000 -2.510 -0.000 0.000
3106 3109 3112 3113 3 0.628 1.883 0.000 -2.510 -0.000 0.000
3106 3109 3112 3114 3 0.628 1.883 0.000 -2.510 -0.000 0.000
3106 3109 3112 3115 3 2.301 -1.464 0.837 -1.674 -0.000 0.000
3107 3106 3109 3110 3 0.628 1.883 0.000 -2.510 -0.000 0.000
3107 3106 3109 3111 3 0.628 1.883 0.000 -2.510 -0.000 0.000
3107 3106 3109 3112 3 0.628 1.883 0.000 -2.510 -0.000 0.000
3108 3106 3109 3110 3 0.628 1.883 0.000 -2.510 -0.000 0.000
3108 3106 3109 3111 3 0.628 1.883 0.000 -2.510 -0.000 0.000
3108 3106 3109 3112 3 0.628 1.883 0.000 -2.510 -0.000 0.000
3109 3112 3115 3116 3 0.628 1.883 0.000 -2.510 -0.000 0.000
3109 3112 3115 3117 3 0.628 1.883 0.000 -2.510 -0.000 0.000
3109 3112 3115 3118 3 2.301 -1.464 0.837 -1.674 -0.000 0.000
3110 3109 3112 3113 3 0.628 1.883 0.000 -2.510 -0.000 0.000
3110 3109 3112 3114 3 0.628 1.883 0.000 -2.510 -0.000 0.000
3110 3109 3112 3115 3 0.628 1.883 0.000 -2.510 -0.000 0.000
3111 3109 3112 3113 3 0.628 1.883 0.000 -2.510 -0.000 0.000
3111 3109 3112 3114 3 0.628 1.883 0.000 -2.510 -0.000 0.000
3111 3109 3112 3115 3 0.628 1.883 0.000 -2.510 -0.000 0.000
3112 3115 3118 3119 3 0.628 1.883 0.000 -2.510 -0.000 0.000
3112 3115 3118 3120 3 0.628 1.883 0.000 -2.510 -0.000 0.000
3112 3115 3118 3121 3 2.301 -1.464 0.837 -1.674 -0.000 0.000
3113 3112 3115 3116 3 0.628 1.883 0.000 -2.510 -0.000 0.000
3113 3112 3115 3117 3 0.628 1.883 0.000 -2.510 -0.000 0.000
3113 3112 3115 3118 3 0.628 1.883 0.000 -2.510 -0.000 0.000
3114 3112 3115 3116 3 0.628 1.883 0.000 -2.510 -0.000 0.000
3114 3112 3115 3117 3 0.628 1.883 0.000 -2.510 -0.000 0.000
3114 3112 3115 3118 3 0.628 1.883 0.000 -2.510 -0.000 0.000
3115 3118 3121 3122 3 0.628 1.883 0.000 -2.510 -0.000 0.000
3115 3118 3121 3123 3 0.628 1.883 0.000 -2.510 -0.000 0.000
3115 3118 3121 3124 3 2.301 -1.464 0.837 -1.674 -0.000 0.000
3116 3115 3118 3119 3 0.628 1.883 0.000 -2.510 -0.000 0.000
3116 3115 3118 3120 3 0.628 1.883 0.000 -2.510 -0.000 0.000
3116 3115 3118 3121 3 0.628 1.883 0.000 -2.510 -0.000 0.000
3117 3115 3118 3119 3 0.628 1.883 0.000 -2.510 -0.000 0.000
3117 3115 3118 3120 3 0.628 1.883 0.000 -2.510 -0.000 0.000
3117 3115 3118 3121 3 0.628 1.883 0.000 -2.510 -0.000 0.000
3118 3121 3124 3125 3 0.628 1.883 0.000 -2.510 -0.000 0.000
3118 3121 3124 3126 3 0.628 1.883 0.000 -2.510 -0.000 0.000
3118 3121 3124 3127 3 2.301 -1.464 0.837 -1.674 -0.000 0.000
3119 3118 3121 3122 3 0.628 1.883 0.000 -2.510 -0.000 0.000
3119 3118 3121 3123 3 0.628 1.883 0.000 -2.510 -0.000 0.000
3119 3118 3121 3124 3 0.628 1.883 0.000 -2.510 -0.000 0.000
3120 3118 3121 3122 3 0.628 1.883 0.000 -2.510 -0.000 0.000
3120 3118 3121 3123 3 0.628 1.883 0.000 -2.510 -0.000 0.000
3120 3118 3121 3124 3 0.628 1.883 0.000 -2.510 -0.000 0.000
3121 3124 3127 3128 3 0.628 1.883 0.000 -2.510 -0.000 0.000
3121 3124 3127 3129 3 0.628 1.883 0.000 -2.510 -0.000 0.000
3121 3124 3127 3130 3 0.628 1.883 0.000 -2.510 -0.000 0.000
3122 3121 3124 3125 3 0.628 1.883 0.000 -2.510 -0.000 0.000
3122 3121 3124 3126 3 0.628 1.883 0.000 -2.510 -0.000 0.000
3122 3121 3124 3127 3 0.628 1.883 0.000 -2.510 -0.000 0.000
3123 3121 3124 3125 3 0.628 1.883 0.000 -2.510 -0.000 0.000
3123 3121 3124 3126 3 0.628 1.883 0.000 -2.510 -0.000 0.000
3123 3121 3124 3127 3 0.628 1.883 0.000 -2.510 -0.000 0.000
3125 3124 3127 3128 3 0.628 1.883 0.000 -2.510 -0.000 0.000
3125 3124 3127 3129 3 0.628 1.883 0.000 -2.510 -0.000 0.000
3125 3124 3127 3130 3 0.628 1.883 0.000 -2.510 -0.000 0.000
3126 3124 3127 3128 3 0.628 1.883 0.000 -2.510 -0.000 0.000
3126 3124 3127 3129 3 0.628 1.883 0.000 -2.510 -0.000 0.000
3126 3124 3127 3130 3 0.628 1.883 0.000 -2.510 -0.000 0.000
3131 3132 3135 3136 3 -0.778 -2.335 0.000 3.113 -0.000 0.000
3131 3132 3135 3139 3 -0.778 -2.335 0.000 3.113 -0.000 0.000
3132 3135 3136 3137 3 58.576 0.000 -58.576 -0.000 -0.000 0.000
3132 3135 3136 3138 3 58.576 0.000 -58.576 -0.000 -0.000 0.000
3132 3135 3136 3201 3 2.928800 -1.464400 0.209200 -1.673600 0.000000 0.000000
3132 3135 3139 3140 3 1.789 -5.052 -0.962 4.226 -0.000 0.000
3132 3135 3139 3141 3 1.789 -5.052 -0.962 4.226 -0.000 0.000
3133 3132 3135 3136 3 -0.778 -2.335 0.000 3.113 -0.000 0.000
3133 3132 3135 3139 3 -0.778 -2.335 0.000 3.113 -0.000 0.000
3134 3132 3135 3136 3 -0.778 -2.335 0.000 3.113 -0.000 0.000
3134 3132 3135 3139 3 -0.778 -2.335 0.000 3.113 -0.000 0.000
3136 3132 3135 3139 4 180.000 10.460 2
3135 3136 3201 3198 3 2.928800 -1.464400 0.209200 -1.673600 0.000000 0.000000
3135 3136 3201 3202 3 2.928800 -1.464400 0.209200 -1.673600 0.000000 0.000000
3135 3136 3201 3205 3 2.928800 -1.464400 0.209200 -1.673600 0.000000 0.000000
3135 3139 3141 3142 3 31.206 -9.768 -21.439 -0.000 -0.000 0.000
3136 3135 3139 3140 3 30.334 -5.230 -25.104 -0.000 -0.000 0.000
3136 3135 3139 3141 3 -5.858 -6.694 12.552 -0.000 -0.000 0.000
3137 3135 3136 3138 4 180.000 10.460 2
3139 3135 3136 3137 3 58.576 0.000 -58.576 -0.000 -0.000 0.000
3139 3135 3136 3138 3 58.576 0.000 -58.576 -0.000 -0.000 0.000
3139 3135 3136 3201 3 2.928800 -1.464400 0.209200 -1.673600 0.000000 0.000000
3140 3135 3139 3141 4 180.000 43.932 2
3136 3201 3202 3203 3 0.627600 1.882800 0.000000 -2.510400 0.000000 0.000000
3136 3201 3202 3204 3 0.627600 1.882800 0.000000 -2.510400 0.000000 0.000000
3136 3201 3202 3267 3 2.928800 -1.464400 0.209200 -1.673600 0.000000 0.000000
3136 3201 3205 3206 3 2.874410 0.581580 2.092000 -5.547990 0.000000 0.000000
3136 3201 3205 3207 3 2.874410 0.581580 2.092000 -5.547990 0.000000 0.000000
3137 3136 3201 3198 3 0.627600 1.882800 0.000000 -2.510400 0.000000 0.000000
3137 3136 3201 3202 3 0.627600 1.882800 0.000000 -2.510400 0.000000 0.000000
3137 3136 3201 3205 3 0.627600 1.882800 0.000000 -2.510400 0.000000 0.000000
3138 3136 3201 3198 3 0.627600 1.882800 0.000000 -2.510400 0.000000 0.000000
3138 3136 3201 3202 3 0.627600 1.882800 0.000000 -2.510400 0.000000 0.000000
3138 3136 3201 3205 3 0.627600 1.882800 0.000000 -2.510400 0.000000 0.000000
3197 3198 3201 3136 3 0.627600 1.882800 0.000000 -2.510400 0.000000 0.000000
3199 3198 3201 3136 3 0.627600 1.882800 0.000000 -2.510400 0.000000 0.000000
3200 3198 3201 3136 3 0.627600 1.882800 0.000000 -2.510400 0.000000 0.000000
3139 3141 3142 3143 3 0.414 1.243 0.000 -1.657 -0.000 0.000
3139 3141 3142 3144 3 0.414 1.243 0.000 -1.657 -0.000 0.000
3139 3141 3142 3145 3 -2.197 5.201 0.527 -3.531 -0.000 0.000
3140 3139 3141 3142 3 21.439 0.000 -21.439 -0.000 -0.000 0.000
3141 3142 3145 3146 3 0.979 2.937 0.000 -3.916 -0.000 0.000
3141 3142 3145 3147 3 0.979 2.937 0.000 -3.916 -0.000 0.000
3141 3142 3145 3148 3 2.874 0.582 2.092 -5.548 -0.000 0.000
3142 3145 3148 3149 3 0.628 1.883 0.000 -2.510 -0.000 0.000
3142 3145 3148 3150 3 0.628 1.883 0.000 -2.510 -0.000 0.000
3142 3145 3148 3151 3 2.301 -1.464 0.837 -1.674 -0.000 0.000
3143 3142 3145 3146 3 0.628 1.883 0.000 -2.510 -0.000 0.000
3143 3142 3145 3147 3 0.628 1.883 0.000 -2.510 -0.000 0.000
3143 3142 3145 3148 3 0.628 1.883 0.000 -2.510 -0.000 0.000
3144 3142 3145 3146 3 0.628 1.883 0.000 -2.510 -0.000 0.000
3144 3142 3145 3147 3 0.628 1.883 0.000 -2.510 -0.000 0.000
3144 3142 3145 3148 3 0.628 1.883 0.000 -2.510 -0.000 0.000
3145 3148 3151 3152 3 0.628 1.883 0.000 -2.510 -0.000 0.000
3145 3148 3151 3153 3 0.628 1.883 0.000 -2.510 -0.000 0.000
3145 3148 3151 3154 3 2.301 -1.464 0.837 -1.674 -0.000 0.000
3146 3145 3148 3149 3 0.628 1.883 0.000 -2.510 -0.000 0.000
3146 3145 3148 3150 3 0.628 1.883 0.000 -2.510 -0.000 0.000
3146 3145 3148 3151 3 0.628 1.883 0.000 -2.510 -0.000 0.000
3147 3145 3148 3149 3 0.628 1.883 0.000 -2.510 -0.000 0.000
3147 3145 3148 3150 3 0.628 1.883 0.000 -2.510 -0.000 0.000
3147 3145 3148 3151 3 0.628 1.883 0.000 -2.510 -0.000 0.000
3148 3151 3154 3155 3 0.628 1.883 0.000 -2.510 -0.000 0.000
3148 3151 3154 3156 3 0.628 1.883 0.000 -2.510 -0.000 0.000
3148 3151 3154 3157 3 2.301 -1.464 0.837 -1.674 -0.000 0.000
3149 3148 3151 3152 3 0.628 1.883 0.000 -2.510 -0.000 0.000
3149 3148 3151 3153 3 0.628 1.883 0.000 -2.510 -0.000 0.000
3149 3148 3151 3154 3 0.628 1.883 0.000 -2.510 -0.000 0.000
3150 3148 3151 3152 3 0.628 1.883 0.000 -2.510 -0.000 0.000
3150 3148 3151 3153 3 0.628 1.883 0.000 -2.510 -0.000 0.000
3150 3148 3151 3154 3 0.628 1.883 0.000 -2.510 -0.000 0.000
3151 3154 3157 3158 3 0.628 1.883 0.000 -2.510 -0.000 0.000
3151 3154 3157 3159 3 0.628 1.883 0.000 -2.510 -0.000 0.000
3151 3154 3157 3160 3 2.301 -1.464 0.837 -1.674 -0.000 0.000
3152 3151 3154 3155 3 0.628 1.883 0.000 -2.510 -0.000 0.000
3152 3151 3154 3156 3 0.628 1.883 0.000 -2.510 -0.000 0.000
3152 3151 3154 3157 3 0.628 1.883 0.000 -2.510 -0.000 0.000
3153 3151 3154 3155 3 0.628 1.883 0.000 -2.510 -0.000 0.000
3153 3151 3154 3156 3 0.628 1.883 0.000 -2.510 -0.000 0.000
3153 3151 3154 3157 3 0.628 1.883 0.000 -2.510 -0.000 0.000
3154 3157 3160 3161 3 0.628 1.883 0.000 -2.510 -0.000 0.000
3154 3157 3160 3162 3 0.628 1.883 0.000 -2.510 -0.000 0.000
3154 3157 3160 3163 3 2.301 -1.464 0.837 -1.674 -0.000 0.000
3155 3154 3157 3158 3 0.628 1.883 0.000 -2.510 -0.000 0.000
3155 3154 3157 3159 3 0.628 1.883 0.000 -2.510 -0.000 0.000
3155 3154 3157 3160 3 0.628 1.883 0.000 -2.510 -0.000 0.000
3156 3154 3157 3158 3 0.628 1.883 0.000 -2.510 -0.000 0.000
3156 3154 3157 3159 3 0.628 1.883 0.000 -2.510 -0.000 0.000
3156 3154 3157 3160 3 0.628 1.883 0.000 -2.510 -0.000 0.000
3157 3160 3163 3164 3 0.628 1.883 0.000 -2.510 -0.000 0.000
3157 3160 3163 3165 3 0.628 1.883 0.000 -2.510 -0.000 0.000
3157 3160 3163 3166 3 2.301 -1.464 0.837 -1.674 -0.000 0.000
3158 3157 3160 3161 3 0.628 1.883 0.000 -2.510 -0.000 0.000
3158 3157 3160 3162 3 0.628 1.883 0.000 -2.510 -0.000 0.000
3158 3157 3160 3163 3 0.628 1.883 0.000 -2.510 -0.000 0.000
3159 3157 3160 3161 3 0.628 1.883 0.000 -2.510 -0.000 0.000
3159 3157 3160 3162 3 0.628 1.883 0.000 -2.510 -0.000 0.000
3159 3157 3160 3163 3 0.628 1.883 0.000 -2.510 -0.000 0.000
3160 3163 3166 3167 3 0.628 1.883 0.000 -2.510 -0.000 0.000
3160 3163 3166 3168 3 0.628 1.883 0.000 -2.510 -0.000 0.000
3160 3163 3166 3169 3 2.301 -1.464 0.837 -1.674 -0.000 0.000
3161 3160 3163 3164 3 0.628 1.883 0.000 -2.510 -0.000 0.000
3161 3160 3163 3165 3 0.628 1.883 0.000 -2.510 -0.000 0.000
3161 3160 3163 3166 3 0.628 1.883 0.000 -2.510 -0.000 0.000
3162 3160 3163 3164 3 0.628 1.883 0.000 -2.510 -0.000 0.000
3162 3160 3163 3165 3 0.628 1.883 0.000 -2.510 -0.000 0.000
3162 3160 3163 3166 3 0.628 1.883 0.000 -2.510 -0.000 0.000
3163 3166 3169 3170 3 0.628 1.883 0.000 -2.510 -0.000 0.000
3163 3166 3169 3171 3 0.628 1.883 0.000 -2.510 -0.000 0.000
3163 3166 3169 3172 3 2.301 -1.464 0.837 -1.674 -0.000 0.000
3164 3163 3166 3167 3 0.628 1.883 0.000 -2.510 -0.000 0.000
3164 3163 3166 3168 3 0.628 1.883 0.000 -2.510 -0.000 0.000
3164 3163 3166 3169 3 0.628 1.883 0.000 -2.510 -0.000 0.000
3165 3163 3166 3167 3 0.628 1.883 0.000 -2.510 -0.000 0.000
3165 3163 3166 3168 3 0.628 1.883 0.000 -2.510 -0.000 0.000
3165 3163 3166 3169 3 0.628 1.883 0.000 -2.510 -0.000 0.000
3166 3169 3172 3173 3 0.628 1.883 0.000 -2.510 -0.000 0.000
3166 3169 3172 3174 3 0.628 1.883 0.000 -2.510 -0.000 0.000
3166 3169 3172 3175 3 2.301 -1.464 0.837 -1.674 -0.000 0.000
3167 3166 3169 3170 3 0.628 1.883 0.000 -2.510 -0.000 0.000
3167 3166 3169 3171 3 0.628 1.883 0.000 -2.510 -0.000 0.000
3167 3166 3169 3172 3 0.628 1.883 0.000 -2.510 -0.000 0.000
3168 3166 3169 3170 3 0.628 1.883 0.000 -2.510 -0.000 0.000
3168 3166 3169 3171 3 0.628 1.883 0.000 -2.510 -0.000 0.000
3168 3166 3169 3172 3 0.628 1.883 0.000 -2.510 -0.000 0.000
3169 3172 3175 3176 3 0.628 1.883 0.000 -2.510 -0.000 0.000
3169 3172 3175 3177 3 0.628 1.883 0.000 -2.510 -0.000 0.000
3169 3172 3175 3178 3 2.301 -1.464 0.837 -1.674 -0.000 0.000
3170 3169 3172 3173 3 0.628 1.883 0.000 -2.510 -0.000 0.000
3170 3169 3172 3174 3 0.628 1.883 0.000 -2.510 -0.000 0.000
3170 3169 3172 3175 3 0.628 1.883 0.000 -2.510 -0.000 0.000
3171 3169 3172 3173 3 0.628 1.883 0.000 -2.510 -0.000 0.000
3171 3169 3172 3174 3 0.628 1.883 0.000 -2.510 -0.000 0.000
3171 3169 3172 3175 3 0.628 1.883 0.000 -2.510 -0.000 0.000
3172 3175 3178 3179 3 0.628 1.883 0.000 -2.510 -0.000 0.000
3172 3175 3178 3180 3 0.628 1.883 0.000 -2.510 -0.000 0.000
3172 3175 3178 3181 3 2.301 -1.464 0.837 -1.674 -0.000 0.000
3173 3172 3175 3176 3 0.628 1.883 0.000 -2.510 -0.000 0.000
3173 3172 3175 3177 3 0.628 1.883 0.000 -2.510 -0.000 0.000
3173 3172 3175 3178 3 0.628 1.883 0.000 -2.510 -0.000 0.000
3174 3172 3175 3176 3 0.628 1.883 0.000 -2.510 -0.000 0.000
3174 3172 3175 3177 3 0.628 1.883 0.000 -2.510 -0.000 0.000
3174 3172 3175 3178 3 0.628 1.883 0.000 -2.510 -0.000 0.000
3175 3178 3181 3182 3 0.628 1.883 0.000 -2.510 -0.000 0.000
3175 3178 3181 3183 3 0.628 1.883 0.000 -2.510 -0.000 0.000
3175 3178 3181 3184 3 2.301 -1.464 0.837 -1.674 -0.000 0.000
3176 3175 3178 3179 3 0.628 1.883 0.000 -2.510 -0.000 0.000
3176 3175 3178 3180 3 0.628 1.883 0.000 -2.510 -0.000 0.000
3176 3175 3178 3181 3 0.628 1.883 0.000 -2.510 -0.000 0.000
3177 3175 3178 3179 3 0.628 1.883 0.000 -2.510 -0.000 0.000
3177 3175 3178 3180 3 0.628 1.883 0.000 -2.510 -0.000 0.000
3177 3175 3178 3181 3 0.628 1.883 0.000 -2.510 -0.000 0.000
3178 3181 3184 3185 3 0.628 1.883 0.000 -2.510 -0.000 0.000
3178 3181 3184 3186 3 0.628 1.883 0.000 -2.510 -0.000 0.000
3178 3181 3184 3187 3 2.301 -1.464 0.837 -1.674 -0.000 0.000
3179 3178 3181 3182 3 0.628 1.883 0.000 -2.510 -0.000 0.000
3179 3178 3181 3183 3 0.628 1.883 0.000 -2.510 -0.000 0.000
3179 3178 3181 3184 3 0.628 1.883 0.000 -2.510 -0.000 0.000
3180 3178 3181 3182 3 0.628 1.883 0.000 -2.510 -0.000 0.000
3180 3178 3181 3183 3 0.628 1.883 0.000 -2.510 -0.000 0.000
3180 3178 3181 3184 3 0.628 1.883 0.000 -2.510 -0.000 0.000
3181 3184 3187 3188 3 0.628 1.883 0.000 -2.510 -0.000 0.000
3181 3184 3187 3189 3 0.628 1.883 0.000 -2.510 -0.000 0.000
3181 3184 3187 3190 3 2.301 -1.464 0.837 -1.674 -0.000 0.000
3182 3181 3184 3185 3 0.628 1.883 0.000 -2.510 -0.000 0.000
3182 3181 3184 3186 3 0.628 1.883 0.000 -2.510 -0.000 0.000
3182 3181 3184 3187 3 0.628 1.883 0.000 -2.510 -0.000 0.000
3183 3181 3184 3185 3 0.628 1.883 0.000 -2.510 -0.000 0.000
3183 3181 3184 3186 3 0.628 1.883 0.000 -2.510 -0.000 0.000
3183 3181 3184 3187 3 0.628 1.883 0.000 -2.510 -0.000 0.000
3184 3187 3190 3191 3 0.628 1.883 0.000 -2.510 -0.000 0.000
3184 3187 3190 3192 3 0.628 1.883 0.000 -2.510 -0.000 0.000
3184 3187 3190 3193 3 2.301 -1.464 0.837 -1.674 -0.000 0.000
3185 3184 3187 3188 3 0.628 1.883 0.000 -2.510 -0.000 0.000
3185 3184 3187 3189 3 0.628 1.883 0.000 -2.510 -0.000 0.000
3185 3184 3187 3190 3 0.628 1.883 0.000 -2.510 -0.000 0.000
3186 3184 3187 3188 3 0.628 1.883 0.000 -2.510 -0.000 0.000
3186 3184 3187 3189 3 0.628 1.883 0.000 -2.510 -0.000 0.000
3186 3184 3187 3190 3 0.628 1.883 0.000 -2.510 -0.000 0.000
3187 3190 3193 3194 3 0.628 1.883 0.000 -2.510 -0.000 0.000
3187 3190 3193 3195 3 0.628 1.883 0.000 -2.510 -0.000 0.000
3187 3190 3193 3196 3 0.628 1.883 0.000 -2.510 -0.000 0.000
3188 3187 3190 3191 3 0.628 1.883 0.000 -2.510 -0.000 0.000
3188 3187 3190 3192 3 0.628 1.883 0.000 -2.510 -0.000 0.000
3188 3187 3190 3193 3 0.628 1.883 0.000 -2.510 -0.000 0.000
3189 3187 3190 3191 3 0.628 1.883 0.000 -2.510 -0.000 0.000
3189 3187 3190 3192 3 0.628 1.883 0.000 -2.510 -0.000 0.000
3189 3187 3190 3193 3 0.628 1.883 0.000 -2.510 -0.000 0.000
3191 3190 3193 3194 3 0.628 1.883 0.000 -2.510 -0.000 0.000
3191 3190 3193 3195 3 0.628 1.883 0.000 -2.510 -0.000 0.000
3191 3190 3193 3196 3 0.628 1.883 0.000 -2.510 -0.000 0.000
3192 3190 3193 3194 3 0.628 1.883 0.000 -2.510 -0.000 0.000
3192 3190 3193 3195 3 0.628 1.883 0.000 -2.510 -0.000 0.000
3192 3190 3193 3196 3 0.628 1.883 0.000 -2.510 -0.000 0.000
3197 3198 3201 3202 3 -0.778 -2.335 0.000 3.113 -0.000 0.000
3197 3198 3201 3205 3 -0.778 -2.335 0.000 3.113 -0.000 0.000
3198 3201 3202 3203 3 58.576 0.000 -58.576 -0.000 -0.000 0.000
3198 3201 3202 3204 3 58.576 0.000 -58.576 -0.000 -0.000 0.000
3198 3201 3202 3267 3 2.928800 -1.464400 0.209200 -1.673600 0.000000 0.000000
3198 3201 3205 3206 3 1.789 -5.052 -0.962 4.226 -0.000 0.000
3198 3201 3205 3207 3 1.789 -5.052 -0.962 4.226 -0.000 0.000
3199 3198 3201 3202 3 -0.778 -2.335 0.000 3.113 -0.000 0.000
3199 3198 3201 3205 3 -0.778 -2.335 0.000 3.113 -0.000 0.000
3200 3198 3201 3202 3 -0.778 -2.335 0.000 3.113 -0.000 0.000
3200 3198 3201 3205 3 -0.778 -2.335 0.000 3.113 -0.000 0.000
3202 3198 3201 3205 4 180.000 10.460 2
3201 3202 3267 3264 3 2.928800 -1.464400 0.209200 -1.673600 0.000000 0.000000
3201 3202 3267 3268 3 2.928800 -1.464400 0.209200 -1.673600 0.000000 0.000000
3201 3202 3267 3271 3 2.928800 -1.464400 0.209200 -1.673600 0.000000 0.000000
3201 3205 3207 3208 3 31.206 -9.768 -21.439 -0.000 -0.000 0.000
3202 3201 3205 3206 3 30.334 -5.230 -25.104 -0.000 -0.000 0.000
3202 3201 3205 3207 3 -5.858 -6.694 12.552 -0.000 -0.000 0.000
3203 3201 3202 3204 4 180.000 10.460 2
3205 3201 3202 3203 3 58.576 0.000 -58.576 -0.000 -0.000 0.000
3205 3201 3202 3204 3 58.576 0.000 -58.576 -0.000 -0.000 0.000
3205 3201 3202 3267 3 2.928800 -1.464400 0.209200 -1.673600 0.000000 0.000000
3206 3201 3205 3207 4 180.000 43.932 2
3202 3267 3268 3269 3 0.627600 1.882800 0.000000 -2.510400 0.000000 0.000000
3202 3267 3268 3270 3 0.627600 1.882800 0.000000 -2.510400 0.000000 0.000000
3202 3267 3268 3303 3 2.928800 -1.464400 0.209200 -1.673600 0.000000 0.000000
3202 3267 3271 3272 3 2.874410 0.581580 2.092000 -5.547990 0.000000 0.000000
3202 3267 3271 3273 3 2.874410 0.581580 2.092000 -5.547990 0.000000 0.000000
3203 3202 3267 3264 3 0.627600 1.882800 0.000000 -2.510400 0.000000 0.000000
3203 3202 3267 3268 3 0.627600 1.882800 0.000000 -2.510400 0.000000 0.000000
3203 3202 3267 3271 3 0.627600 1.882800 0.000000 -2.510400 0.000000 0.000000
3204 3202 3267 3264 3 0.627600 1.882800 0.000000 -2.510400 0.000000 0.000000
3204 3202 3267 3268 3 0.627600 1.882800 0.000000 -2.510400 0.000000 0.000000
3204 3202 3267 3271 3 0.627600 1.882800 0.000000 -2.510400 0.000000 0.000000
3263 3264 3267 3202 3 0.627600 1.882800 0.000000 -2.510400 0.000000 0.000000
3265 3264 3267 3202 3 0.627600 1.882800 0.000000 -2.510400 0.000000 0.000000
3266 3264 3267 3202 3 0.627600 1.882800 0.000000 -2.510400 0.000000 0.000000
3205 3207 3208 3209 3 0.414 1.243 0.000 -1.657 -0.000 0.000
3205 3207 3208 3210 3 0.414 1.243 0.000 -1.657 -0.000 0.000
3205 3207 3208 3211 3 -2.197 5.201 0.527 -3.531 -0.000 0.000
3206 3205 3207 3208 3 21.439 0.000 -21.439 -0.000 -0.000 0.000
3207 3208 3211 3212 3 0.979 2.937 0.000 -3.916 -0.000 0.000
3207 3208 3211 3213 3 0.979 2.937 0.000 -3.916 -0.000 0.000
3207 3208 3211 3214 3 2.874 0.582 2.092 -5.548 -0.000 0.000
3208 3211 3214 3215 3 0.628 1.883 0.000 -2.510 -0.000 0.000
3208 3211 3214 3216 3 0.628 1.883 0.000 -2.510 -0.000 0.000
3208 3211 3214 3217 3 2.301 -1.464 0.837 -1.674 -0.000 0.000
3209 3208 3211 3212 3 0.628 1.883 0.000 -2.510 -0.000 0.000
3209 3208 3211 3213 3 0.628 1.883 0.000 -2.510 -0.000 0.000
3209 3208 3211 3214 3 0.628 1.883 0.000 -2.510 -0.000 0.000
3210 3208 3211 3212 3 0.628 1.883 0.000 -2.510 -0.000 0.000
3210 3208 3211 3213 3 0.628 1.883 0.000 -2.510 -0.000 0.000
3210 3208 3211 3214 3 0.628 1.883 0.000 -2.510 -0.000 0.000
3211 3214 3217 3218 3 0.628 1.883 0.000 -2.510 -0.000 0.000
3211 3214 3217 3219 3 0.628 1.883 0.000 -2.510 -0.000 0.000
3211 3214 3217 3220 3 2.301 -1.464 0.837 -1.674 -0.000 0.000
3212 3211 3214 3215 3 0.628 1.883 0.000 -2.510 -0.000 0.000
3212 3211 3214 3216 3 0.628 1.883 0.000 -2.510 -0.000 0.000
3212 3211 3214 3217 3 0.628 1.883 0.000 -2.510 -0.000 0.000
3213 3211 3214 3215 3 0.628 1.883 0.000 -2.510 -0.000 0.000
3213 3211 3214 3216 3 0.628 1.883 0.000 -2.510 -0.000 0.000
3213 3211 3214 3217 3 0.628 1.883 0.000 -2.510 -0.000 0.000
3214 3217 3220 3221 3 0.628 1.883 0.000 -2.510 -0.000 0.000
3214 3217 3220 3222 3 0.628 1.883 0.000 -2.510 -0.000 0.000
3214 3217 3220 3223 3 2.301 -1.464 0.837 -1.674 -0.000 0.000
3215 3214 3217 3218 3 0.628 1.883 0.000 -2.510 -0.000 0.000
3215 3214 3217 3219 3 0.628 1.883 0.000 -2.510 -0.000 0.000
3215 3214 3217 3220 3 0.628 1.883 0.000 -2.510 -0.000 0.000
3216 3214 3217 3218 3 0.628 1.883 0.000 -2.510 -0.000 0.000
3216 3214 3217 3219 3 0.628 1.883 0.000 -2.510 -0.000 0.000
3216 3214 3217 3220 3 0.628 1.883 0.000 -2.510 -0.000 0.000
3217 3220 3223 3224 3 0.628 1.883 0.000 -2.510 -0.000 0.000
3217 3220 3223 3225 3 0.628 1.883 0.000 -2.510 -0.000 0.000
3217 3220 3223 3226 3 2.301 -1.464 0.837 -1.674 -0.000 0.000
3218 3217 3220 3221 3 0.628 1.883 0.000 -2.510 -0.000 0.000
3218 3217 3220 3222 3 0.628 1.883 0.000 -2.510 -0.000 0.000
3218 3217 3220 3223 3 0.628 1.883 0.000 -2.510 -0.000 0.000
3219 3217 3220 3221 3 0.628 1.883 0.000 -2.510 -0.000 0.000
3219 3217 3220 3222 3 0.628 1.883 0.000 -2.510 -0.000 0.000
3219 3217 3220 3223 3 0.628 1.883 0.000 -2.510 -0.000 0.000
3220 3223 3226 3227 3 0.628 1.883 0.000 -2.510 -0.000 0.000
3220 3223 3226 3228 3 0.628 1.883 0.000 -2.510 -0.000 0.000
3220 3223 3226 3229 3 2.301 -1.464 0.837 -1.674 -0.000 0.000
3221 3220 3223 3224 3 0.628 1.883 0.000 -2.510 -0.000 0.000
3221 3220 3223 3225 3 0.628 1.883 0.000 -2.510 -0.000 0.000
3221 3220 3223 3226 3 0.628 1.883 0.000 -2.510 -0.000 0.000
3222 3220 3223 3224 3 0.628 1.883 0.000 -2.510 -0.000 0.000
3222 3220 3223 3225 3 0.628 1.883 0.000 -2.510 -0.000 0.000
3222 3220 3223 3226 3 0.628 1.883 0.000 -2.510 -0.000 0.000
3223 3226 3229 3230 3 0.628 1.883 0.000 -2.510 -0.000 0.000
3223 3226 3229 3231 3 0.628 1.883 0.000 -2.510 -0.000 0.000
3223 3226 3229 3232 3 2.301 -1.464 0.837 -1.674 -0.000 0.000
3224 3223 3226 3227 3 0.628 1.883 0.000 -2.510 -0.000 0.000
3224 3223 3226 3228 3 0.628 1.883 0.000 -2.510 -0.000 0.000
3224 3223 3226 3229 3 0.628 1.883 0.000 -2.510 -0.000 0.000
3225 3223 3226 3227 3 0.628 1.883 0.000 -2.510 -0.000 0.000
3225 3223 3226 3228 3 0.628 1.883 0.000 -2.510 -0.000 0.000
3225 3223 3226 3229 3 0.628 1.883 0.000 -2.510 -0.000 0.000
3226 3229 3232 3233 3 0.628 1.883 0.000 -2.510 -0.000 0.000
3226 3229 3232 3234 3 0.628 1.883 0.000 -2.510 -0.000 0.000
3226 3229 3232 3235 3 2.301 -1.464 0.837 -1.674 -0.000 0.000
3227 3226 3229 3230 3 0.628 1.883 0.000 -2.510 -0.000 0.000
3227 3226 3229 3231 3 0.628 1.883 0.000 -2.510 -0.000 0.000
3227 3226 3229 3232 3 0.628 1.883 0.000 -2.510 -0.000 0.000
3228 3226 3229 3230 3 0.628 1.883 0.000 -2.510 -0.000 0.000
3228 3226 3229 3231 3 0.628 1.883 0.000 -2.510 -0.000 0.000
3228 3226 3229 3232 3 0.628 1.883 0.000 -2.510 -0.000 0.000
3229 3232 3235 3236 3 0.628 1.883 0.000 -2.510 -0.000 0.000
3229 3232 3235 3237 3 0.628 1.883 0.000 -2.510 -0.000 0.000
3229 3232 3235 3238 3 2.301 -1.464 0.837 -1.674 -0.000 0.000
3230 3229 3232 3233 3 0.628 1.883 0.000 -2.510 -0.000 0.000
3230 3229 3232 3234 3 0.628 1.883 0.000 -2.510 -0.000 0.000
3230 3229 3232 3235 3 0.628 1.883 0.000 -2.510 -0.000 0.000
3231 3229 3232 3233 3 0.628 1.883 0.000 -2.510 -0.000 0.000
3231 3229 3232 3234 3 0.628 1.883 0.000 -2.510 -0.000 0.000
3231 3229 3232 3235 3 0.628 1.883 0.000 -2.510 -0.000 0.000
3232 3235 3238 3239 3 0.628 1.883 0.000 -2.510 -0.000 0.000
3232 3235 3238 3240 3 0.628 1.883 0.000 -2.510 -0.000 0.000
3232 3235 3238 3241 3 2.301 -1.464 0.837 -1.674 -0.000 0.000
3233 3232 3235 3236 3 0.628 1.883 0.000 -2.510 -0.000 0.000
3233 3232 3235 3237 3 0.628 1.883 0.000 -2.510 -0.000 0.000
3233 3232 3235 3238 3 0.628 1.883 0.000 -2.510 -0.000 0.000
3234 3232 3235 3236 3 0.628 1.883 0.000 -2.510 -0.000 0.000
3234 3232 3235 3237 3 0.628 1.883 0.000 -2.510 -0.000 0.000
3234 3232 3235 3238 3 0.628 1.883 0.000 -2.510 -0.000 0.000
3235 3238 3241 3242 3 0.628 1.883 0.000 -2.510 -0.000 0.000
3235 3238 3241 3243 3 0.628 1.883 0.000 -2.510 -0.000 0.000
3235 3238 3241 3244 3 2.301 -1.464 0.837 -1.674 -0.000 0.000
3236 3235 3238 3239 3 0.628 1.883 0.000 -2.510 -0.000 0.000
3236 3235 3238 3240 3 0.628 1.883 0.000 -2.510 -0.000 0.000
3236 3235 3238 3241 3 0.628 1.883 0.000 -2.510 -0.000 0.000
3237 3235 3238 3239 3 0.628 1.883 0.000 -2.510 -0.000 0.000
3237 3235 3238 3240 3 0.628 1.883 0.000 -2.510 -0.000 0.000
3237 3235 3238 3241 3 0.628 1.883 0.000 -2.510 -0.000 0.000
3238 3241 3244 3245 3 0.628 1.883 0.000 -2.510 -0.000 0.000
3238 3241 3244 3246 3 0.628 1.883 0.000 -2.510 -0.000 0.000
3238 3241 3244 3247 3 2.301 -1.464 0.837 -1.674 -0.000 0.000
3239 3238 3241 3242 3 0.628 1.883 0.000 -2.510 -0.000 0.000
3239 3238 3241 3243 3 0.628 1.883 0.000 -2.510 -0.000 0.000
3239 3238 3241 3244 3 0.628 1.883 0.000 -2.510 -0.000 0.000
3240 3238 3241 3242 3 0.628 1.883 0.000 -2.510 -0.000 0.000
3240 3238 3241 3243 3 0.628 1.883 0.000 -2.510 -0.000 0.000
3240 3238 3241 3244 3 0.628 1.883 0.000 -2.510 -0.000 0.000
3241 3244 3247 3248 3 0.628 1.883 0.000 -2.510 -0.000 0.000
3241 3244 3247 3249 3 0.628 1.883 0.000 -2.510 -0.000 0.000
3241 3244 3247 3250 3 2.301 -1.464 0.837 -1.674 -0.000 0.000
3242 3241 3244 3245 3 0.628 1.883 0.000 -2.510 -0.000 0.000
3242 3241 3244 3246 3 0.628 1.883 0.000 -2.510 -0.000 0.000
3242 3241 3244 3247 3 0.628 1.883 0.000 -2.510 -0.000 0.000
3243 3241 3244 3245 3 0.628 1.883 0.000 -2.510 -0.000 0.000
3243 3241 3244 3246 3 0.628 1.883 0.000 -2.510 -0.000 0.000
3243 3241 3244 3247 3 0.628 1.883 0.000 -2.510 -0.000 0.000
3244 3247 3250 3251 3 0.628 1.883 0.000 -2.510 -0.000 0.000
3244 3247 3250 3252 3 0.628 1.883 0.000 -2.510 -0.000 0.000
3244 3247 3250 3253 3 2.301 -1.464 0.837 -1.674 -0.000 0.000
3245 3244 3247 3248 3 0.628 1.883 0.000 -2.510 -0.000 0.000
3245 3244 3247 3249 3 0.628 1.883 0.000 -2.510 -0.000 0.000
3245 3244 3247 3250 3 0.628 1.883 0.000 -2.510 -0.000 0.000
3246 3244 3247 3248 3 0.628 1.883 0.000 -2.510 -0.000 0.000
3246 3244 3247 3249 3 0.628 1.883 0.000 -2.510 -0.000 0.000
3246 3244 3247 3250 3 0.628 1.883 0.000 -2.510 -0.000 0.000
3247 3250 3253 3254 3 0.628 1.883 0.000 -2.510 -0.000 0.000
3247 3250 3253 3255 3 0.628 1.883 0.000 -2.510 -0.000 0.000
3247 3250 3253 3256 3 2.301 -1.464 0.837 -1.674 -0.000 0.000
3248 3247 3250 3251 3 0.628 1.883 0.000 -2.510 -0.000 0.000
3248 3247 3250 3252 3 0.628 1.883 0.000 -2.510 -0.000 0.000
3248 3247 3250 3253 3 0.628 1.883 0.000 -2.510 -0.000 0.000
3249 3247 3250 3251 3 0.628 1.883 0.000 -2.510 -0.000 0.000
3249 3247 3250 3252 3 0.628 1.883 0.000 -2.510 -0.000 0.000
3249 3247 3250 3253 3 0.628 1.883 0.000 -2.510 -0.000 0.000
3250 3253 3256 3257 3 0.628 1.883 0.000 -2.510 -0.000 0.000
3250 3253 3256 3258 3 0.628 1.883 0.000 -2.510 -0.000 0.000
3250 3253 3256 3259 3 2.301 -1.464 0.837 -1.674 -0.000 0.000
3251 3250 3253 3254 3 0.628 1.883 0.000 -2.510 -0.000 0.000
3251 3250 3253 3255 3 0.628 1.883 0.000 -2.510 -0.000 0.000
3251 3250 3253 3256 3 0.628 1.883 0.000 -2.510 -0.000 0.000
3252 3250 3253 3254 3 0.628 1.883 0.000 -2.510 -0.000 0.000
3252 3250 3253 3255 3 0.628 1.883 0.000 -2.510 -0.000 0.000
3252 3250 3253 3256 3 0.628 1.883 0.000 -2.510 -0.000 0.000
3253 3256 3259 3260 3 0.628 1.883 0.000 -2.510 -0.000 0.000
3253 3256 3259 3261 3 0.628 1.883 0.000 -2.510 -0.000 0.000
3253 3256 3259 3262 3 0.628 1.883 0.000 -2.510 -0.000 0.000
3254 3253 3256 3257 3 0.628 1.883 0.000 -2.510 -0.000 0.000
3254 3253 3256 3258 3 0.628 1.883 0.000 -2.510 -0.000 0.000
3254 3253 3256 3259 3 0.628 1.883 0.000 -2.510 -0.000 0.000
3255 3253 3256 3257 3 0.628 1.883 0.000 -2.510 -0.000 0.000
3255 3253 3256 3258 3 0.628 1.883 0.000 -2.510 -0.000 0.000
3255 3253 3256 3259 3 0.628 1.883 0.000 -2.510 -0.000 0.000
3257 3256 3259 3260 3 0.628 1.883 0.000 -2.510 -0.000 0.000
3257 3256 3259 3261 3 0.628 1.883 0.000 -2.510 -0.000 0.000
3257 3256 3259 3262 3 0.628 1.883 0.000 -2.510 -0.000 0.000
3258 3256 3259 3260 3 0.628 1.883 0.000 -2.510 -0.000 0.000
3258 3256 3259 3261 3 0.628 1.883 0.000 -2.510 -0.000 0.000
3258 3256 3259 3262 3 0.628 1.883 0.000 -2.510 -0.000 0.000
3263 3264 3267 3268 3 -0.778 -2.335 0.000 3.113 -0.000 0.000
3263 3264 3267 3271 3 -0.778 -2.335 0.000 3.113 -0.000 0.000
3264 3267 3268 3269 3 58.576 0.000 -58.576 -0.000 -0.000 0.000
3264 3267 3268 3270 3 58.576 0.000 -58.576 -0.000 -0.000 0.000
3264 3267 3268 3303 3 2.928800 -1.464400 0.209200 -1.673600 0.000000 0.000000
3264 3267 3271 3272 3 1.789 -5.052 -0.962 4.226 -0.000 0.000
3264 3267 3271 3273 3 1.789 -5.052 -0.962 4.226 -0.000 0.000
3265 3264 3267 3268 3 -0.778 -2.335 0.000 3.113 -0.000 0.000
3265 3264 3267 3271 3 -0.778 -2.335 0.000 3.113 -0.000 0.000
3266 3264 3267 3268 3 -0.778 -2.335 0.000 3.113 -0.000 0.000
3266 3264 3267 3271 3 -0.778 -2.335 0.000 3.113 -0.000 0.000
3268 3264 3267 3271 4 180.000 10.460 2
3267 3268 3303 3300 3 2.928800 -1.464400 0.209200 -1.673600 0.000000 0.000000
3267 3268 3303 3304 3 2.928800 -1.464400 0.209200 -1.673600 0.000000 0.000000
3267 3268 3303 3307 3 2.928800 -1.464400 0.209200 -1.673600 0.000000 0.000000
3267 3271 3273 3274 3 31.206 -9.768 -21.439 -0.000 -0.000 0.000
3268 3267 3271 3272 3 30.334 -5.230 -25.104 -0.000 -0.000 0.000
3268 3267 3271 3273 3 -5.858 -6.694 12.552 -0.000 -0.000 0.000
3269 3267 3268 3270 4 180.000 10.460 2
3271 3267 3268 3269 3 58.576 0.000 -58.576 -0.000 -0.000 0.000
3271 3267 3268 3270 3 58.576 0.000 -58.576 -0.000 -0.000 0.000
3271 3267 3268 3303 3 2.928800 -1.464400 0.209200 -1.673600 0.000000 0.000000
3272 3267 3271 3273 4 180.000 43.932 2
3268 3303 3304 3305 3 0.627600 1.882800 0.000000 -2.510400 0.000000 0.000000
3268 3303 3304 3306 3 0.627600 1.882800 0.000000 -2.510400 0.000000 0.000000
3268 3303 3304 3351 3 2.928800 -1.464400 0.209200 -1.673600 0.000000 0.000000
3268 3303 3307 3308 3 2.874410 0.581580 2.092000 -5.547990 0.000000 0.000000
3268 3303 3307 3309 3 2.874410 0.581580 2.092000 -5.547990 0.000000 0.000000
3269 3268 3303 3300 3 0.627600 1.882800 0.000000 -2.510400 0.000000 0.000000
3269 3268 3303 3304 3 0.627600 1.882800 0.000000 -2.510400 0.000000 0.000000
3269 3268 3303 3307 3 0.627600 1.882800 0.000000 -2.510400 0.000000 0.000000
3270 3268 3303 3300 3 0.627600 1.882800 0.000000 -2.510400 0.000000 0.000000
3270 3268 3303 3304 3 0.627600 1.882800 0.000000 -2.510400 0.000000 0.000000
3270 3268 3303 3307 3 0.627600 1.882800 0.000000 -2.510400 0.000000 0.000000
3299 3300 3303 3268 3 0.627600 1.882800 0.000000 -2.510400 0.000000 0.000000
3301 3300 3303 3268 3 0.627600 1.882800 0.000000 -2.510400 0.000000 0.000000
3302 3300 3303 3268 3 0.627600 1.882800 0.000000 -2.510400 0.000000 0.000000
3271 3273 3274 3275 3 0.414 1.243 0.000 -1.657 -0.000 0.000
3271 3273 3274 3276 3 0.414 1.243 0.000 -1.657 -0.000 0.000
3271 3273 3274 3277 3 -2.197 5.201 0.527 -3.531 -0.000 0.000
3272 3271 3273 3274 3 21.439 0.000 -21.439 -0.000 -0.000 0.000
3273 3274 3277 3278 3 0.979 2.937 0.000 -3.916 -0.000 0.000
3273 3274 3277 3279 3 2.874 0.582 2.092 -5.548 -0.000 0.000
3273 3274 3277 3286 3 2.874 0.582 2.092 -5.548 -0.000 0.000
3274 3277 3279 3280 3 0.628 1.883 0.000 -2.510 -0.000 0.000
3274 3277 3279 3281 3 0.628 1.883 0.000 -2.510 -0.000 0.000
3274 3277 3279 3282 3 2.301 -1.464 0.837 -1.674 -0.000 0.000
3274 3277 3286 3287 3 0.628 1.883 0.000 -2.510 -0.000 0.000
3274 3277 3286 3288 3 0.628 1.883 0.000 -2.510 -0.000 0.000
3274 3277 3286 3289 3 2.301 -1.464 0.837 -1.674 -0.000 0.000
3275 3274 3277 3278 3 0.628 1.883 0.000 -2.510 -0.000 0.000
3275 3274 3277 3279 3 0.628 1.883 0.000 -2.510 -0.000 0.000
3275 3274 3277 3286 3 0.628 1.883 0.000 -2.510 -0.000 0.000
3276 3274 3277 3278 3 0.628 1.883 0.000 -2.510 -0.000 0.000
3276 3274 3277 3279 3 0.628 1.883 0.000 -2.510 -0.000 0.000
3276 3274 3277 3286 3 0.628 1.883 0.000 -2.510 -0.000 0.000
3277 3279 3282 3283 3 0.628 1.883 0.000 -2.510 -0.000 0.000
3277 3279 3282 3284 3 0.628 1.883 0.000 -2.510 -0.000 0.000
3277 3279 3282 3285 3 0.628 1.883 0.000 -2.510 -0.000 0.000
3277 3286 3289 3290 3 0.628 1.883 0.000 -2.510 -0.000 0.000
3277 3286 3289 3291 3 0.628 1.883 0.000 -2.510 -0.000 0.000
3277 3286 3289 3292 3 2.301 -1.464 0.837 -1.674 -0.000 0.000
3278 3277 3279 3280 3 0.628 1.883 0.000 -2.510 -0.000 0.000
3278 3277 3279 3281 3 0.628 1.883 0.000 -2.510 -0.000 0.000
3278 3277 3279 3282 3 0.628 1.883 0.000 -2.510 -0.000 0.000
3278 3277 3286 3287 3 0.628 1.883 0.000 -2.510 -0.000 0.000
3278 3277 3286 3288 3 0.628 1.883 0.000 -2.510 -0.000 0.000
3278 3277 3286 3289 3 0.628 1.883 0.000 -2.510 -0.000 0.000
3279 3277 3286 3287 3 0.628 1.883 0.000 -2.510 -0.000 0.000
3279 3277 3286 3288 3 0.628 1.883 0.000 -2.510 -0.000 0.000
3279 3277 3286 3289 3 2.301 -1.464 0.837 -1.674 -0.000 0.000
3286 3277 3279 3280 3 0.628 1.883 0.000 -2.510 -0.000 0.000
3286 3277 3279 3281 3 0.628 1.883 0.000 -2.510 -0.000 0.000
3286 3277 3279 3282 3 2.301 -1.464 0.837 -1.674 -0.000 0.000
3280 3279 3282 3283 3 0.628 1.883 0.000 -2.510 -0.000 0.000
3280 3279 3282 3284 3 0.628 1.883 0.000 -2.510 -0.000 0.000
3280 3279 3282 3285 3 0.628 1.883 0.000 -2.510 -0.000 0.000
3281 3279 3282 3283 3 0.628 1.883 0.000 -2.510 -0.000 0.000
3281 3279 3282 3284 3 0.628 1.883 0.000 -2.510 -0.000 0.000
3281 3279 3282 3285 3 0.628 1.883 0.000 -2.510 -0.000 0.000
3286 3289 3292 3293 3 0.628 1.883 0.000 -2.510 -0.000 0.000
3286 3289 3292 3294 3 0.628 1.883 0.000 -2.510 -0.000 0.000
3286 3289 3292 3295 3 2.301 -1.464 0.837 -1.674 -0.000 0.000
3287 3286 3289 3290 3 0.628 1.883 0.000 -2.510 -0.000 0.000
3287 3286 3289 3291 3 0.628 1.883 0.000 -2.510 -0.000 0.000
3287 3286 3289 3292 3 0.628 1.883 0.000 -2.510 -0.000 0.000
3288 3286 3289 3290 3 0.628 1.883 0.000 -2.510 -0.000 0.000
3288 3286 3289 3291 3 0.628 1.883 0.000 -2.510 -0.000 0.000
3288 3286 3289 3292 3 0.628 1.883 0.000 -2.510 -0.000 0.000
3289 3292 3295 3296 3 0.628 1.883 0.000 -2.510 -0.000 0.000
3289 3292 3295 3297 3 0.628 1.883 0.000 -2.510 -0.000 0.000
3289 3292 3295 3298 3 0.628 1.883 0.000 -2.510 -0.000 0.000
3290 3289 3292 3293 3 0.628 1.883 0.000 -2.510 -0.000 0.000
3290 3289 3292 3294 3 0.628 1.883 0.000 -2.510 -0.000 0.000
3290 3289 3292 3295 3 0.628 1.883 0.000 -2.510 -0.000 0.000
3291 3289 3292 3293 3 0.628 1.883 0.000 -2.510 -0.000 0.000
3291 3289 3292 3294 3 0.628 1.883 0.000 -2.510 -0.000 0.000
3291 3289 3292 3295 3 0.628 1.883 0.000 -2.510 -0.000 0.000
3293 3292 3295 3296 3 0.628 1.883 0.000 -2.510 -0.000 0.000
3293 3292 3295 3297 3 0.628 1.883 0.000 -2.510 -0.000 0.000
3293 3292 3295 3298 3 0.628 1.883 0.000 -2.510 -0.000 0.000
3294 3292 3295 3296 3 0.628 1.883 0.000 -2.510 -0.000 0.000
3294 3292 3295 3297 3 0.628 1.883 0.000 -2.510 -0.000 0.000
3294 3292 3295 3298 3 0.628 1.883 0.000 -2.510 -0.000 0.000
3299 3300 3303 3304 3 -0.778 -2.335 0.000 3.113 -0.000 0.000
3299 3300 3303 3307 3 -0.778 -2.335 0.000 3.113 -0.000 0.000
3300 3303 3304 3305 3 58.576 0.000 -58.576 -0.000 -0.000 0.000
3300 3303 3304 3306 3 58.576 0.000 -58.576 -0.000 -0.000 0.000
3300 3303 3304 3351 3 2.928800 -1.464400 0.209200 -1.673600 0.000000 0.000000
3300 3303 3307 3308 3 1.789 -5.052 -0.962 4.226 -0.000 0.000
3300 3303 3307 3309 3 1.789 -5.052 -0.962 4.226 -0.000 0.000
3301 3300 3303 3304 3 -0.778 -2.335 0.000 3.113 -0.000 0.000
3301 3300 3303 3307 3 -0.778 -2.335 0.000 3.113 -0.000 0.000
3302 3300 3303 3304 3 -0.778 -2.335 0.000 3.113 -0.000 0.000
3302 3300 3303 3307 3 -0.778 -2.335 0.000 3.113 -0.000 0.000
3304 3300 3303 3307 4 180.000 10.460 2
3303 3304 3351 3348 3 2.928800 -1.464400 0.209200 -1.673600 0.000000 0.000000
3303 3304 3351 3352 3 2.928800 -1.464400 0.209200 -1.673600 0.000000 0.000000
3303 3304 3351 3355 3 2.928800 -1.464400 0.209200 -1.673600 0.000000 0.000000
3303 3307 3309 3310 3 31.206 -9.768 -21.439 -0.000 -0.000 0.000
3304 3303 3307 3308 3 30.334 -5.230 -25.104 -0.000 -0.000 0.000
3304 3303 3307 3309 3 -5.858 -6.694 12.552 -0.000 -0.000 0.000
3305 3303 3304 3306 4 180.000 10.460 2
3307 3303 3304 3305 3 58.576 0.000 -58.576 -0.000 -0.000 0.000
3307 3303 3304 3306 3 58.576 0.000 -58.576 -0.000 -0.000 0.000
3307 3303 3304 3351 3 2.928800 -1.464400 0.209200 -1.673600 0.000000 0.000000
3308 3303 3307 3309 4 180.000 43.932 2
3304 3351 3352 3353 3 0.627600 1.882800 0.000000 -2.510400 0.000000 0.000000
3304 3351 3352 3354 3 0.627600 1.882800 0.000000 -2.510400 0.000000 0.000000
3304 3351 3352 3417 3 2.928800 -1.464400 0.209200 -1.673600 0.000000 0.000000
3304 3351 3355 3356 3 2.874410 0.581580 2.092000 -5.547990 0.000000 0.000000
3304 3351 3355 3357 3 2.874410 0.581580 2.092000 -5.547990 0.000000 0.000000
3305 3304 3351 3348 3 0.627600 1.882800 0.000000 -2.510400 0.000000 0.000000
3305 3304 3351 3352 3 0.627600 1.882800 0.000000 -2.510400 0.000000 0.000000
3305 3304 3351 3355 3 0.627600 1.882800 0.000000 -2.510400 0.000000 0.000000
3306 3304 3351 3348 3 0.627600 1.882800 0.000000 -2.510400 0.000000 0.000000
3306 3304 3351 3352 3 0.627600 1.882800 0.000000 -2.510400 0.000000 0.000000
3306 3304 3351 3355 3 0.627600 1.882800 0.000000 -2.510400 0.000000 0.000000
3347 3348 3351 3304 3 0.627600 1.882800 0.000000 -2.510400 0.000000 0.000000
3349 3348 3351 3304 3 0.627600 1.882800 0.000000 -2.510400 0.000000 0.000000
3350 3348 3351 3304 3 0.627600 1.882800 0.000000 -2.510400 0.000000 0.000000
3307 3309 3310 3311 3 0.414 1.243 0.000 -1.657 -0.000 0.000
3307 3309 3310 3312 3 0.414 1.243 0.000 -1.657 -0.000 0.000
3307 3309 3310 3313 3 -2.197 5.201 0.527 -3.531 -0.000 0.000
3308 3307 3309 3310 3 21.439 0.000 -21.439 -0.000 -0.000 0.000
3309 3310 3313 3314 3 0.979 2.937 0.000 -3.916 -0.000 0.000
3309 3310 3313 3315 3 0.979 2.937 0.000 -3.916 -0.000 0.000
3309 3310 3313 3316 3 2.874 0.582 2.092 -5.548 -0.000 0.000
3310 3313 3316 3317 3 0.628 1.883 0.000 -2.510 -0.000 0.000
3310 3313 3316 3318 3 0.628 1.883 0.000 -2.510 -0.000 0.000
3310 3313 3316 3319 3 2.301 -1.464 0.837 -1.674 -0.000 0.000
3311 3310 3313 3314 3 0.628 1.883 0.000 -2.510 -0.000 0.000
3311 3310 3313 3315 3 0.628 1.883 0.000 -2.510 -0.000 0.000
3311 3310 3313 3316 3 0.628 1.883 0.000 -2.510 -0.000 0.000
3312 3310 3313 3314 3 0.628 1.883 0.000 -2.510 -0.000 0.000
3312 3310 3313 3315 3 0.628 1.883 0.000 -2.510 -0.000 0.000
3312 3310 3313 3316 3 0.628 1.883 0.000 -2.510 -0.000 0.000
3313 3316 3319 3320 3 0.628 1.883 0.000 -2.510 -0.000 0.000
3313 3316 3319 3321 3 0.628 1.883 0.000 -2.510 -0.000 0.000
3313 3316 3319 3322 3 2.301 -1.464 0.837 -1.674 -0.000 0.000
3314 3313 3316 3317 3 0.628 1.883 0.000 -2.510 -0.000 0.000
3314 3313 3316 3318 3 0.628 1.883 0.000 -2.510 -0.000 0.000
3314 3313 3316 3319 3 0.628 1.883 0.000 -2.510 -0.000 0.000
3315 3313 3316 3317 3 0.628 1.883 0.000 -2.510 -0.000 0.000
3315 3313 3316 3318 3 0.628 1.883 0.000 -2.510 -0.000 0.000
3315 3313 3316 3319 3 0.628 1.883 0.000 -2.510 -0.000 0.000
3316 3319 3322 3323 3 0.628 1.883 0.000 -2.510 -0.000 0.000
3316 3319 3322 3324 3 0.628 1.883 0.000 -2.510 -0.000 0.000
3316 3319 3322 3325 3 2.301 -1.464 0.837 -1.674 -0.000 0.000
3317 3316 3319 3320 3 0.628 1.883 0.000 -2.510 -0.000 0.000
3317 3316 3319 3321 3 0.628 1.883 0.000 -2.510 -0.000 0.000
3317 3316 3319 3322 3 0.628 1.883 0.000 -2.510 -0.000 0.000
3318 3316 3319 3320 3 0.628 1.883 0.000 -2.510 -0.000 0.000
3318 3316 3319 3321 3 0.628 1.883 0.000 -2.510 -0.000 0.000
3318 3316 3319 3322 3 0.628 1.883 0.000 -2.510 -0.000 0.000
3319 3322 3325 3326 3 0.628 1.883 0.000 -2.510 -0.000 0.000
3319 3322 3325 3327 3 0.628 1.883 0.000 -2.510 -0.000 0.000
3319 3322 3325 3328 3 2.301 -1.464 0.837 -1.674 -0.000 0.000
3320 3319 3322 3323 3 0.628 1.883 0.000 -2.510 -0.000 0.000
3320 3319 3322 3324 3 0.628 1.883 0.000 -2.510 -0.000 0.000
3320 3319 3322 3325 3 0.628 1.883 0.000 -2.510 -0.000 0.000
3321 3319 3322 3323 3 0.628 1.883 0.000 -2.510 -0.000 0.000
3321 3319 3322 3324 3 0.628 1.883 0.000 -2.510 -0.000 0.000
3321 3319 3322 3325 3 0.628 1.883 0.000 -2.510 -0.000 0.000
3322 3325 3328 3329 3 0.628 1.883 0.000 -2.510 -0.000 0.000
3322 3325 3328 3330 3 0.628 1.883 0.000 -2.510 -0.000 0.000
3322 3325 3328 3331 3 2.301 -1.464 0.837 -1.674 -0.000 0.000
3323 3322 3325 3326 3 0.628 1.883 0.000 -2.510 -0.000 0.000
3323 3322 3325 3327 3 0.628 1.883 0.000 -2.510 -0.000 0.000
3323 3322 3325 3328 3 0.628 1.883 0.000 -2.510 -0.000 0.000
3324 3322 3325 3326 3 0.628 1.883 0.000 -2.510 -0.000 0.000
3324 3322 3325 3327 3 0.628 1.883 0.000 -2.510 -0.000 0.000
3324 3322 3325 3328 3 0.628 1.883 0.000 -2.510 -0.000 0.000
3325 3328 3331 3332 3 0.628 1.883 0.000 -2.510 -0.000 0.000
3325 3328 3331 3333 3 0.628 1.883 0.000 -2.510 -0.000 0.000
3325 3328 3331 3334 3 2.301 -1.464 0.837 -1.674 -0.000 0.000
3326 3325 3328 3329 3 0.628 1.883 0.000 -2.510 -0.000 0.000
3326 3325 3328 3330 3 0.628 1.883 0.000 -2.510 -0.000 0.000
3326 3325 3328 3331 3 0.628 1.883 0.000 -2.510 -0.000 0.000
3327 3325 3328 3329 3 0.628 1.883 0.000 -2.510 -0.000 0.000
3327 3325 3328 3330 3 0.628 1.883 0.000 -2.510 -0.000 0.000
3327 3325 3328 3331 3 0.628 1.883 0.000 -2.510 -0.000 0.000
3328 3331 3334 3335 3 0.628 1.883 0.000 -2.510 -0.000 0.000
3328 3331 3334 3336 3 0.628 1.883 0.000 -2.510 -0.000 0.000
3328 3331 3334 3337 3 2.301 -1.464 0.837 -1.674 -0.000 0.000
3329 3328 3331 3332 3 0.628 1.883 0.000 -2.510 -0.000 0.000
3329 3328 3331 3333 3 0.628 1.883 0.000 -2.510 -0.000 0.000
3329 3328 3331 3334 3 0.628 1.883 0.000 -2.510 -0.000 0.000
3330 3328 3331 3332 3 0.628 1.883 0.000 -2.510 -0.000 0.000
3330 3328 3331 3333 3 0.628 1.883 0.000 -2.510 -0.000 0.000
3330 3328 3331 3334 3 0.628 1.883 0.000 -2.510 -0.000 0.000
3331 3334 3337 3338 3 0.628 1.883 0.000 -2.510 -0.000 0.000
3331 3334 3337 3339 3 0.628 1.883 0.000 -2.510 -0.000 0.000
3331 3334 3337 3340 3 2.301 -1.464 0.837 -1.674 -0.000 0.000
3332 3331 3334 3335 3 0.628 1.883 0.000 -2.510 -0.000 0.000
3332 3331 3334 3336 3 0.628 1.883 0.000 -2.510 -0.000 0.000
3332 3331 3334 3337 3 0.628 1.883 0.000 -2.510 -0.000 0.000
3333 3331 3334 3335 3 0.628 1.883 0.000 -2.510 -0.000 0.000
3333 3331 3334 3336 3 0.628 1.883 0.000 -2.510 -0.000 0.000
3333 3331 3334 3337 3 0.628 1.883 0.000 -2.510 -0.000 0.000
3334 3337 3340 3341 3 0.628 1.883 0.000 -2.510 -0.000 0.000
3334 3337 3340 3342 3 0.628 1.883 0.000 -2.510 -0.000 0.000
3334 3337 3340 3343 3 2.301 -1.464 0.837 -1.674 -0.000 0.000
3335 3334 3337 3338 3 0.628 1.883 0.000 -2.510 -0.000 0.000
3335 3334 3337 3339 3 0.628 1.883 0.000 -2.510 -0.000 0.000
3335 3334 3337 3340 3 0.628 1.883 0.000 -2.510 -0.000 0.000
3336 3334 3337 3338 3 0.628 1.883 0.000 -2.510 -0.000 0.000
3336 3334 3337 3339 3 0.628 1.883 0.000 -2.510 -0.000 0.000
3336 3334 3337 3340 3 0.628 1.883 0.000 -2.510 -0.000 0.000
3337 3340 3343 3344 3 0.628 1.883 0.000 -2.510 -0.000 0.000
3337 3340 3343 3345 3 0.628 1.883 0.000 -2.510 -0.000 0.000
3337 3340 3343 3346 3 0.628 1.883 0.000 -2.510 -0.000 0.000
3338 3337 3340 3341 3 0.628 1.883 0.000 -2.510 -0.000 0.000
3338 3337 3340 3342 3 0.628 1.883 0.000 -2.510 -0.000 0.000
3338 3337 3340 3343 3 0.628 1.883 0.000 -2.510 -0.000 0.000
3339 3337 3340 3341 3 0.628 1.883 0.000 -2.510 -0.000 0.000
3339 3337 3340 3342 3 0.628 1.883 0.000 -2.510 -0.000 0.000
3339 3337 3340 3343 3 0.628 1.883 0.000 -2.510 -0.000 0.000
3341 3340 3343 3344 3 0.628 1.883 0.000 -2.510 -0.000 0.000
3341 3340 3343 3345 3 0.628 1.883 0.000 -2.510 -0.000 0.000
3341 3340 3343 3346 3 0.628 1.883 0.000 -2.510 -0.000 0.000
3342 3340 3343 3344 3 0.628 1.883 0.000 -2.510 -0.000 0.000
3342 3340 3343 3345 3 0.628 1.883 0.000 -2.510 -0.000 0.000
3342 3340 3343 3346 3 0.628 1.883 0.000 -2.510 -0.000 0.000
3347 3348 3351 3352 3 -0.778 -2.335 0.000 3.113 -0.000 0.000
3347 3348 3351 3355 3 -0.778 -2.335 0.000 3.113 -0.000 0.000
3348 3351 3352 3353 3 58.576 0.000 -58.576 -0.000 -0.000 0.000
3348 3351 3352 3354 3 58.576 0.000 -58.576 -0.000 -0.000 0.000
3348 3351 3352 3417 3 2.928800 -1.464400 0.209200 -1.673600 0.000000 0.000000
3348 3351 3355 3356 3 1.789 -5.052 -0.962 4.226 -0.000 0.000
3348 3351 3355 3357 3 1.789 -5.052 -0.962 4.226 -0.000 0.000
3349 3348 3351 3352 3 -0.778 -2.335 0.000 3.113 -0.000 0.000
3349 3348 3351 3355 3 -0.778 -2.335 0.000 3.113 -0.000 0.000
3350 3348 3351 3352 3 -0.778 -2.335 0.000 3.113 -0.000 0.000
3350 3348 3351 3355 3 -0.778 -2.335 0.000 3.113 -0.000 0.000
3352 3348 3351 3355 4 180.000 10.460 2
3351 3352 3417 3414 3 2.928800 -1.464400 0.209200 -1.673600 0.000000 0.000000
3351 3352 3417 3418 3 2.928800 -1.464400 0.209200 -1.673600 0.000000 0.000000
3351 3352 3417 3421 3 2.928800 -1.464400 0.209200 -1.673600 0.000000 0.000000
3351 3355 3357 3358 3 31.206 -9.768 -21.439 -0.000 -0.000 0.000
3352 3351 3355 3356 3 30.334 -5.230 -25.104 -0.000 -0.000 0.000
3352 3351 3355 3357 3 -5.858 -6.694 12.552 -0.000 -0.000 0.000
3353 3351 3352 3354 4 180.000 10.460 2
3355 3351 3352 3353 3 58.576 0.000 -58.576 -0.000 -0.000 0.000
3355 3351 3352 3354 3 58.576 0.000 -58.576 -0.000 -0.000 0.000
3355 3351 3352 3417 3 2.928800 -1.464400 0.209200 -1.673600 0.000000 0.000000
3356 3351 3355 3357 4 180.000 43.932 2
3352 3417 3418 3419 3 0.627600 1.882800 0.000000 -2.510400 0.000000 0.000000
3352 3417 3418 3420 3 0.627600 1.882800 0.000000 -2.510400 0.000000 0.000000
3352 3417 3418 3453 3 2.928800 -1.464400 0.209200 -1.673600 0.000000 0.000000
3352 3417 3421 3422 3 2.874410 0.581580 2.092000 -5.547990 0.000000 0.000000
3352 3417 3421 3423 3 2.874410 0.581580 2.092000 -5.547990 0.000000 0.000000
3353 3352 3417 3414 3 0.627600 1.882800 0.000000 -2.510400 0.000000 0.000000
3353 3352 3417 3418 3 0.627600 1.882800 0.000000 -2.510400 0.000000 0.000000
3353 3352 3417 3421 3 0.627600 1.882800 0.000000 -2.510400 0.000000 0.000000
3354 3352 3417 3414 3 0.627600 1.882800 0.000000 -2.510400 0.000000 0.000000
3354 3352 3417 3418 3 0.627600 1.882800 0.000000 -2.510400 0.000000 0.000000
3354 3352 3417 3421 3 0.627600 1.882800 0.000000 -2.510400 0.000000 0.000000
3413 3414 3417 3352 3 0.627600 1.882800 0.000000 -2.510400 0.000000 0.000000
3415 3414 3417 3352 3 0.627600 1.882800 0.000000 -2.510400 0.000000 0.000000
3416 3414 3417 3352 3 0.627600 1.882800 0.000000 -2.510400 0.000000 0.000000
3355 3357 3358 3359 3 0.414 1.243 0.000 -1.657 -0.000 0.000
3355 3357 3358 3360 3 0.414 1.243 0.000 -1.657 -0.000 0.000
3355 3357 3358 3361 3 -2.197 5.201 0.527 -3.531 -0.000 0.000
3356 3355 3357 3358 3 21.439 0.000 -21.439 -0.000 -0.000 0.000
3357 3358 3361 3362 3 0.979 2.937 0.000 -3.916 -0.000 0.000
3357 3358 3361 3363 3 0.979 2.937 0.000 -3.916 -0.000 0.000
3357 3358 3361 3364 3 2.874 0.582 2.092 -5.548 -0.000 0.000
3358 3361 3364 3365 3 0.628 1.883 0.000 -2.510 -0.000 0.000
3358 3361 3364 3366 3 0.628 1.883 0.000 -2.510 -0.000 0.000
3358 3361 3364 3367 3 2.301 -1.464 0.837 -1.674 -0.000 0.000
3359 3358 3361 3362 3 0.628 1.883 0.000 -2.510 -0.000 0.000
3359 3358 3361 3363 3 0.628 1.883 0.000 -2.510 -0.000 0.000
3359 3358 3361 3364 3 0.628 1.883 0.000 -2.510 -0.000 0.000
3360 3358 3361 3362 3 0.628 1.883 0.000 -2.510 -0.000 0.000
3360 3358 3361 3363 3 0.628 1.883 0.000 -2.510 -0.000 0.000
3360 3358 3361 3364 3 0.628 1.883 0.000 -2.510 -0.000 0.000
3361 3364 3367 3368 3 0.628 1.883 0.000 -2.510 -0.000 0.000
3361 3364 3367 3369 3 0.628 1.883 0.000 -2.510 -0.000 0.000
3361 3364 3367 3370 3 2.301 -1.464 0.837 -1.674 -0.000 0.000
3362 3361 3364 3365 3 0.628 1.883 0.000 -2.510 -0.000 0.000
3362 3361 3364 3366 3 0.628 1.883 0.000 -2.510 -0.000 0.000
3362 3361 3364 3367 3 0.628 1.883 0.000 -2.510 -0.000 0.000
3363 3361 3364 3365 3 0.628 1.883 0.000 -2.510 -0.000 0.000
3363 3361 3364 3366 3 0.628 1.883 0.000 -2.510 -0.000 0.000
3363 3361 3364 3367 3 0.628 1.883 0.000 -2.510 -0.000 0.000
3364 3367 3370 3371 3 0.628 1.883 0.000 -2.510 -0.000 0.000
3364 3367 3370 3372 3 0.628 1.883 0.000 -2.510 -0.000 0.000
3364 3367 3370 3373 3 2.301 -1.464 0.837 -1.674 -0.000 0.000
3365 3364 3367 3368 3 0.628 1.883 0.000 -2.510 -0.000 0.000
3365 3364 3367 3369 3 0.628 1.883 0.000 -2.510 -0.000 0.000
3365 3364 3367 3370 3 0.628 1.883 0.000 -2.510 -0.000 0.000
3366 3364 3367 3368 3 0.628 1.883 0.000 -2.510 -0.000 0.000
3366 3364 3367 3369 3 0.628 1.883 0.000 -2.510 -0.000 0.000
3366 3364 3367 3370 3 0.628 1.883 0.000 -2.510 -0.000 0.000
3367 3370 3373 3374 3 0.628 1.883 0.000 -2.510 -0.000 0.000
3367 3370 3373 3375 3 0.628 1.883 0.000 -2.510 -0.000 0.000
3367 3370 3373 3376 3 2.301 -1.464 0.837 -1.674 -0.000 0.000
3368 3367 3370 3371 3 0.628 1.883 0.000 -2.510 -0.000 0.000
3368 3367 3370 3372 3 0.628 1.883 0.000 -2.510 -0.000 0.000
3368 3367 3370 3373 3 0.628 1.883 0.000 -2.510 -0.000 0.000
3369 3367 3370 3371 3 0.628 1.883 0.000 -2.510 -0.000 0.000
3369 3367 3370 3372 3 0.628 1.883 0.000 -2.510 -0.000 0.000
3369 3367 3370 3373 3 0.628 1.883 0.000 -2.510 -0.000 0.000
3370 3373 3376 3377 3 0.628 1.883 0.000 -2.510 -0.000 0.000
3370 3373 3376 3378 3 0.628 1.883 0.000 -2.510 -0.000 0.000
3370 3373 3376 3379 3 2.301 -1.464 0.837 -1.674 -0.000 0.000
3371 3370 3373 3374 3 0.628 1.883 0.000 -2.510 -0.000 0.000
3371 3370 3373 3375 3 0.628 1.883 0.000 -2.510 -0.000 0.000
3371 3370 3373 3376 3 0.628 1.883 0.000 -2.510 -0.000 0.000
3372 3370 3373 3374 3 0.628 1.883 0.000 -2.510 -0.000 0.000
3372 3370 3373 3375 3 0.628 1.883 0.000 -2.510 -0.000 0.000
3372 3370 3373 3376 3 0.628 1.883 0.000 -2.510 -0.000 0.000
3373 3376 3379 3380 3 0.628 1.883 0.000 -2.510 -0.000 0.000
3373 3376 3379 3381 3 0.628 1.883 0.000 -2.510 -0.000 0.000
3373 3376 3379 3382 3 2.301 -1.464 0.837 -1.674 -0.000 0.000
3374 3373 3376 3377 3 0.628 1.883 0.000 -2.510 -0.000 0.000
3374 3373 3376 3378 3 0.628 1.883 0.000 -2.510 -0.000 0.000
3374 3373 3376 3379 3 0.628 1.883 0.000 -2.510 -0.000 0.000
3375 3373 3376 3377 3 0.628 1.883 0.000 -2.510 -0.000 0.000
3375 3373 3376 3378 3 0.628 1.883 0.000 -2.510 -0.000 0.000
3375 3373 3376 3379 3 0.628 1.883 0.000 -2.510 -0.000 0.000
3376 3379 3382 3383 3 0.628 1.883 0.000 -2.510 -0.000 0.000
3376 3379 3382 3384 3 0.628 1.883 0.000 -2.510 -0.000 0.000
3376 3379 3382 3385 3 2.301 -1.464 0.837 -1.674 -0.000 0.000
3377 3376 3379 3380 3 0.628 1.883 0.000 -2.510 -0.000 0.000
3377 3376 3379 3381 3 0.628 1.883 0.000 -2.510 -0.000 0.000
3377 3376 3379 3382 3 0.628 1.883 0.000 -2.510 -0.000 0.000
3378 3376 3379 3380 3 0.628 1.883 0.000 -2.510 -0.000 0.000
3378 3376 3379 3381 3 0.628 1.883 0.000 -2.510 -0.000 0.000
3378 3376 3379 3382 3 0.628 1.883 0.000 -2.510 -0.000 0.000
3379 3382 3385 3386 3 0.628 1.883 0.000 -2.510 -0.000 0.000
3379 3382 3385 3387 3 0.628 1.883 0.000 -2.510 -0.000 0.000
3379 3382 3385 3388 3 2.301 -1.464 0.837 -1.674 -0.000 0.000
3380 3379 3382 3383 3 0.628 1.883 0.000 -2.510 -0.000 0.000
3380 3379 3382 3384 3 0.628 1.883 0.000 -2.510 -0.000 0.000
3380 3379 3382 3385 3 0.628 1.883 0.000 -2.510 -0.000 0.000
3381 3379 3382 3383 3 0.628 1.883 0.000 -2.510 -0.000 0.000
3381 3379 3382 3384 3 0.628 1.883 0.000 -2.510 -0.000 0.000
3381 3379 3382 3385 3 0.628 1.883 0.000 -2.510 -0.000 0.000
3382 3385 3388 3389 3 0.628 1.883 0.000 -2.510 -0.000 0.000
3382 3385 3388 3390 3 0.628 1.883 0.000 -2.510 -0.000 0.000
3382 3385 3388 3391 3 2.301 -1.464 0.837 -1.674 -0.000 0.000
3383 3382 3385 3386 3 0.628 1.883 0.000 -2.510 -0.000 0.000
3383 3382 3385 3387 3 0.628 1.883 0.000 -2.510 -0.000 0.000
3383 3382 3385 3388 3 0.628 1.883 0.000 -2.510 -0.000 0.000
3384 3382 3385 3386 3 0.628 1.883 0.000 -2.510 -0.000 0.000
3384 3382 3385 3387 3 0.628 1.883 0.000 -2.510 -0.000 0.000
3384 3382 3385 3388 3 0.628 1.883 0.000 -2.510 -0.000 0.000
3385 3388 3391 3392 3 0.628 1.883 0.000 -2.510 -0.000 0.000
3385 3388 3391 3393 3 0.628 1.883 0.000 -2.510 -0.000 0.000
3385 3388 3391 3394 3 2.301 -1.464 0.837 -1.674 -0.000 0.000
3386 3385 3388 3389 3 0.628 1.883 0.000 -2.510 -0.000 0.000
3386 3385 3388 3390 3 0.628 1.883 0.000 -2.510 -0.000 0.000
3386 3385 3388 3391 3 0.628 1.883 0.000 -2.510 -0.000 0.000
3387 3385 3388 3389 3 0.628 1.883 0.000 -2.510 -0.000 0.000
3387 3385 3388 3390 3 0.628 1.883 0.000 -2.510 -0.000 0.000
3387 3385 3388 3391 3 0.628 1.883 0.000 -2.510 -0.000 0.000
3388 3391 3394 3395 3 0.628 1.883 0.000 -2.510 -0.000 0.000
3388 3391 3394 3396 3 0.628 1.883 0.000 -2.510 -0.000 0.000
3388 3391 3394 3397 3 2.301 -1.464 0.837 -1.674 -0.000 0.000
3389 3388 3391 3392 3 0.628 1.883 0.000 -2.510 -0.000 0.000
3389 3388 3391 3393 3 0.628 1.883 0.000 -2.510 -0.000 0.000
3389 3388 3391 3394 3 0.628 1.883 0.000 -2.510 -0.000 0.000
3390 3388 3391 3392 3 0.628 1.883 0.000 -2.510 -0.000 0.000
3390 3388 3391 3393 3 0.628 1.883 0.000 -2.510 -0.000 0.000
3390 3388 3391 3394 3 0.628 1.883 0.000 -2.510 -0.000 0.000
3391 3394 3397 3398 3 0.628 1.883 0.000 -2.510 -0.000 0.000
3391 3394 3397 3399 3 0.628 1.883 0.000 -2.510 -0.000 0.000
3391 3394 3397 3400 3 2.301 -1.464 0.837 -1.674 -0.000 0.000
3392 3391 3394 3395 3 0.628 1.883 0.000 -2.510 -0.000 0.000
3392 3391 3394 3396 3 0.628 1.883 0.000 -2.510 -0.000 0.000
3392 3391 3394 3397 3 0.628 1.883 0.000 -2.510 -0.000 0.000
3393 3391 3394 3395 3 0.628 1.883 0.000 -2.510 -0.000 0.000
3393 3391 3394 3396 3 0.628 1.883 0.000 -2.510 -0.000 0.000
3393 3391 3394 3397 3 0.628 1.883 0.000 -2.510 -0.000 0.000
3394 3397 3400 3401 3 0.628 1.883 0.000 -2.510 -0.000 0.000
3394 3397 3400 3402 3 0.628 1.883 0.000 -2.510 -0.000 0.000
3394 3397 3400 3403 3 2.301 -1.464 0.837 -1.674 -0.000 0.000
3395 3394 3397 3398 3 0.628 1.883 0.000 -2.510 -0.000 0.000
3395 3394 3397 3399 3 0.628 1.883 0.000 -2.510 -0.000 0.000
3395 3394 3397 3400 3 0.628 1.883 0.000 -2.510 -0.000 0.000
3396 3394 3397 3398 3 0.628 1.883 0.000 -2.510 -0.000 0.000
3396 3394 3397 3399 3 0.628 1.883 0.000 -2.510 -0.000 0.000
3396 3394 3397 3400 3 0.628 1.883 0.000 -2.510 -0.000 0.000
3397 3400 3403 3404 3 0.628 1.883 0.000 -2.510 -0.000 0.000
3397 3400 3403 3405 3 0.628 1.883 0.000 -2.510 -0.000 0.000
3397 3400 3403 3406 3 2.301 -1.464 0.837 -1.674 -0.000 0.000
3398 3397 3400 3401 3 0.628 1.883 0.000 -2.510 -0.000 0.000
3398 3397 3400 3402 3 0.628 1.883 0.000 -2.510 -0.000 0.000
3398 3397 3400 3403 3 0.628 1.883 0.000 -2.510 -0.000 0.000
3399 3397 3400 3401 3 0.628 1.883 0.000 -2.510 -0.000 0.000
3399 3397 3400 3402 3 0.628 1.883 0.000 -2.510 -0.000 0.000
3399 3397 3400 3403 3 0.628 1.883 0.000 -2.510 -0.000 0.000
3400 3403 3406 3407 3 0.628 1.883 0.000 -2.510 -0.000 0.000
3400 3403 3406 3408 3 0.628 1.883 0.000 -2.510 -0.000 0.000
3400 3403 3406 3409 3 2.301 -1.464 0.837 -1.674 -0.000 0.000
3401 3400 3403 3404 3 0.628 1.883 0.000 -2.510 -0.000 0.000
3401 3400 3403 3405 3 0.628 1.883 0.000 -2.510 -0.000 0.000
3401 3400 3403 3406 3 0.628 1.883 0.000 -2.510 -0.000 0.000
3402 3400 3403 3404 3 0.628 1.883 0.000 -2.510 -0.000 0.000
3402 3400 3403 3405 3 0.628 1.883 0.000 -2.510 -0.000 0.000
3402 3400 3403 3406 3 0.628 1.883 0.000 -2.510 -0.000 0.000
3403 3406 3409 3410 3 0.628 1.883 0.000 -2.510 -0.000 0.000
3403 3406 3409 3411 3 0.628 1.883 0.000 -2.510 -0.000 0.000
3403 3406 3409 3412 3 0.628 1.883 0.000 -2.510 -0.000 0.000
3404 3403 3406 3407 3 0.628 1.883 0.000 -2.510 -0.000 0.000
3404 3403 3406 3408 3 0.628 1.883 0.000 -2.510 -0.000 0.000
3404 3403 3406 3409 3 0.628 1.883 0.000 -2.510 -0.000 0.000
3405 3403 3406 3407 3 0.628 1.883 0.000 -2.510 -0.000 0.000
3405 3403 3406 3408 3 0.628 1.883 0.000 -2.510 -0.000 0.000
3405 3403 3406 3409 3 0.628 1.883 0.000 -2.510 -0.000 0.000
3407 3406 3409 3410 3 0.628 1.883 0.000 -2.510 -0.000 0.000
3407 3406 3409 3411 3 0.628 1.883 0.000 -2.510 -0.000 0.000
3407 3406 3409 3412 3 0.628 1.883 0.000 -2.510 -0.000 0.000
3408 3406 3409 3410 3 0.628 1.883 0.000 -2.510 -0.000 0.000
3408 3406 3409 3411 3 0.628 1.883 0.000 -2.510 -0.000 0.000
3408 3406 3409 3412 3 0.628 1.883 0.000 -2.510 -0.000 0.000
3413 3414 3417 3418 3 -0.778 -2.335 0.000 3.113 -0.000 0.000
3413 3414 3417 3421 3 -0.778 -2.335 0.000 3.113 -0.000 0.000
3414 3417 3418 3419 3 58.576 0.000 -58.576 -0.000 -0.000 0.000
3414 3417 3418 3420 3 58.576 0.000 -58.576 -0.000 -0.000 0.000
3414 3417 3418 3453 3 2.928800 -1.464400 0.209200 -1.673600 0.000000 0.000000
3414 3417 3421 3422 3 1.789 -5.052 -0.962 4.226 -0.000 0.000
3414 3417 3421 3423 3 1.789 -5.052 -0.962 4.226 -0.000 0.000
3415 3414 3417 3418 3 -0.778 -2.335 0.000 3.113 -0.000 0.000
3415 3414 3417 3421 3 -0.778 -2.335 0.000 3.113 -0.000 0.000
3416 3414 3417 3418 3 -0.778 -2.335 0.000 3.113 -0.000 0.000
3416 3414 3417 3421 3 -0.778 -2.335 0.000 3.113 -0.000 0.000
3418 3414 3417 3421 4 180.000 10.460 2
3417 3418 3453 3450 3 2.928800 -1.464400 0.209200 -1.673600 0.000000 0.000000
3417 3418 3453 3454 3 2.928800 -1.464400 0.209200 -1.673600 0.000000 0.000000
3417 3418 3453 3457 3 2.928800 -1.464400 0.209200 -1.673600 0.000000 0.000000
3417 3421 3423 3424 3 31.206 -9.768 -21.439 -0.000 -0.000 0.000
3418 3417 3421 3422 3 30.334 -5.230 -25.104 -0.000 -0.000 0.000
3418 3417 3421 3423 3 -5.858 -6.694 12.552 -0.000 -0.000 0.000
3419 3417 3418 3420 4 180.000 10.460 2
3421 3417 3418 3419 3 58.576 0.000 -58.576 -0.000 -0.000 0.000
3421 3417 3418 3420 3 58.576 0.000 -58.576 -0.000 -0.000 0.000
3421 3417 3418 3453 3 2.928800 -1.464400 0.209200 -1.673600 0.000000 0.000000
3422 3417 3421 3423 4 180.000 43.932 2
3418 3453 3454 3455 3 0.627600 1.882800 0.000000 -2.510400 0.000000 0.000000
3418 3453 3454 3456 3 0.627600 1.882800 0.000000 -2.510400 0.000000 0.000000
3418 3453 3454 3501 3 2.928800 -1.464400 0.209200 -1.673600 0.000000 0.000000
3418 3453 3457 3458 3 2.874410 0.581580 2.092000 -5.547990 0.000000 0.000000
3418 3453 3457 3459 3 2.874410 0.581580 2.092000 -5.547990 0.000000 0.000000
3419 3418 3453 3450 3 0.627600 1.882800 0.000000 -2.510400 0.000000 0.000000
3419 3418 3453 3454 3 0.627600 1.882800 0.000000 -2.510400 0.000000 0.000000
3419 3418 3453 3457 3 0.627600 1.882800 0.000000 -2.510400 0.000000 0.000000
3420 3418 3453 3450 3 0.627600 1.882800 0.000000 -2.510400 0.000000 0.000000
3420 3418 3453 3454 3 0.627600 1.882800 0.000000 -2.510400 0.000000 0.000000
3420 3418 3453 3457 3 0.627600 1.882800 0.000000 -2.510400 0.000000 0.000000
3449 3450 3453 3418 3 0.627600 1.882800 0.000000 -2.510400 0.000000 0.000000
3451 3450 3453 3418 3 0.627600 1.882800 0.000000 -2.510400 0.000000 0.000000
3452 3450 3453 3418 3 0.627600 1.882800 0.000000 -2.510400 0.000000 0.000000
3421 3423 3424 3425 3 0.414 1.243 0.000 -1.657 -0.000 0.000
3421 3423 3424 3426 3 0.414 1.243 0.000 -1.657 -0.000 0.000
3421 3423 3424 3427 3 -2.197 5.201 0.527 -3.531 -0.000 0.000
3422 3421 3423 3424 3 21.439 0.000 -21.439 -0.000 -0.000 0.000
3423 3424 3427 3428 3 0.979 2.937 0.000 -3.916 -0.000 0.000
3423 3424 3427 3429 3 2.874 0.582 2.092 -5.548 -0.000 0.000
3423 3424 3427 3436 3 2.874 0.582 2.092 -5.548 -0.000 0.000
3424 3427 3429 3430 3 0.628 1.883 0.000 -2.510 -0.000 0.000
3424 3427 3429 3431 3 0.628 1.883 0.000 -2.510 -0.000 0.000
3424 3427 3429 3432 3 2.301 -1.464 0.837 -1.674 -0.000 0.000
3424 3427 3436 3437 3 0.628 1.883 0.000 -2.510 -0.000 0.000
3424 3427 3436 3438 3 0.628 1.883 0.000 -2.510 -0.000 0.000
3424 3427 3436 3439 3 2.301 -1.464 0.837 -1.674 -0.000 0.000
3425 3424 3427 3428 3 0.628 1.883 0.000 -2.510 -0.000 0.000
3425 3424 3427 3429 3 0.628 1.883 0.000 -2.510 -0.000 0.000
3425 3424 3427 3436 3 0.628 1.883 0.000 -2.510 -0.000 0.000
3426 3424 3427 3428 3 0.628 1.883 0.000 -2.510 -0.000 0.000
3426 3424 3427 3429 3 0.628 1.883 0.000 -2.510 -0.000 0.000
3426 3424 3427 3436 3 0.628 1.883 0.000 -2.510 -0.000 0.000
3427 3429 3432 3433 3 0.628 1.883 0.000 -2.510 -0.000 0.000
3427 3429 3432 3434 3 0.628 1.883 0.000 -2.510 -0.000 0.000
3427 3429 3432 3435 3 0.628 1.883 0.000 -2.510 -0.000 0.000
3427 3436 3439 3440 3 0.628 1.883 0.000 -2.510 -0.000 0.000
3427 3436 3439 3441 3 0.628 1.883 0.000 -2.510 -0.000 0.000
3427 3436 3439 3442 3 2.301 -1.464 0.837 -1.674 -0.000 0.000
3428 3427 3429 3430 3 0.628 1.883 0.000 -2.510 -0.000 0.000
3428 3427 3429 3431 3 0.628 1.883 0.000 -2.510 -0.000 0.000
3428 3427 3429 3432 3 0.628 1.883 0.000 -2.510 -0.000 0.000
3428 3427 3436 3437 3 0.628 1.883 0.000 -2.510 -0.000 0.000
3428 3427 3436 3438 3 0.628 1.883 0.000 -2.510 -0.000 0.000
3428 3427 3436 3439 3 0.628 1.883 0.000 -2.510 -0.000 0.000
3429 3427 3436 3437 3 0.628 1.883 0.000 -2.510 -0.000 0.000
3429 3427 3436 3438 3 0.628 1.883 0.000 -2.510 -0.000 0.000
3429 3427 3436 3439 3 2.301 -1.464 0.837 -1.674 -0.000 0.000
3436 3427 3429 3430 3 0.628 1.883 0.000 -2.510 -0.000 0.000
3436 3427 3429 3431 3 0.628 1.883 0.000 -2.510 -0.000 0.000
3436 3427 3429 3432 3 2.301 -1.464 0.837 -1.674 -0.000 0.000
3430 3429 3432 3433 3 0.628 1.883 0.000 -2.510 -0.000 0.000
3430 3429 3432 3434 3 0.628 1.883 0.000 -2.510 -0.000 0.000
3430 3429 3432 3435 3 0.628 1.883 0.000 -2.510 -0.000 0.000
3431 3429 3432 3433 3 0.628 1.883 0.000 -2.510 -0.000 0.000
3431 3429 3432 3434 3 0.628 1.883 0.000 -2.510 -0.000 0.000
3431 3429 3432 3435 3 0.628 1.883 0.000 -2.510 -0.000 0.000
3436 3439 3442 3443 3 0.628 1.883 0.000 -2.510 -0.000 0.000
3436 3439 3442 3444 3 0.628 1.883 0.000 -2.510 -0.000 0.000
3436 3439 3442 3445 3 2.301 -1.464 0.837 -1.674 -0.000 0.000
3437 3436 3439 3440 3 0.628 1.883 0.000 -2.510 -0.000 0.000
3437 3436 3439 3441 3 0.628 1.883 0.000 -2.510 -0.000 0.000
3437 3436 3439 3442 3 0.628 1.883 0.000 -2.510 -0.000 0.000
3438 3436 3439 3440 3 0.628 1.883 0.000 -2.510 -0.000 0.000
3438 3436 3439 3441 3 0.628 1.883 0.000 -2.510 -0.000 0.000
3438 3436 3439 3442 3 0.628 1.883 0.000 -2.510 -0.000 0.000
3439 3442 3445 3446 3 0.628 1.883 0.000 -2.510 -0.000 0.000
3439 3442 3445 3447 3 0.628 1.883 0.000 -2.510 -0.000 0.000
3439 3442 3445 3448 3 0.628 1.883 0.000 -2.510 -0.000 0.000
3440 3439 3442 3443 3 0.628 1.883 0.000 -2.510 -0.000 0.000
3440 3439 3442 3444 3 0.628 1.883 0.000 -2.510 -0.000 0.000
3440 3439 3442 3445 3 0.628 1.883 0.000 -2.510 -0.000 0.000
3441 3439 3442 3443 3 0.628 1.883 0.000 -2.510 -0.000 0.000
3441 3439 3442 3444 3 0.628 1.883 0.000 -2.510 -0.000 0.000
3441 3439 3442 3445 3 0.628 1.883 0.000 -2.510 -0.000 0.000
3443 3442 3445 3446 3 0.628 1.883 0.000 -2.510 -0.000 0.000
3443 3442 3445 3447 3 0.628 1.883 0.000 -2.510 -0.000 0.000
3443 3442 3445 3448 3 0.628 1.883 0.000 -2.510 -0.000 0.000
3444 3442 3445 3446 3 0.628 1.883 0.000 -2.510 -0.000 0.000
3444 3442 3445 3447 3 0.628 1.883 0.000 -2.510 -0.000 0.000
3444 3442 3445 3448 3 0.628 1.883 0.000 -2.510 -0.000 0.000
3449 3450 3453 3454 3 -0.778 -2.335 0.000 3.113 -0.000 0.000
3449 3450 3453 3457 3 -0.778 -2.335 0.000 3.113 -0.000 0.000
3450 3453 3454 3455 3 58.576 0.000 -58.576 -0.000 -0.000 0.000
3450 3453 3454 3456 3 58.576 0.000 -58.576 -0.000 -0.000 0.000
3450 3453 3454 3501 3 2.928800 -1.464400 0.209200 -1.673600 0.000000 0.000000
3450 3453 3457 3458 3 1.789 -5.052 -0.962 4.226 -0.000 0.000
3450 3453 3457 3459 3 1.789 -5.052 -0.962 4.226 -0.000 0.000
3451 3450 3453 3454 3 -0.778 -2.335 0.000 3.113 -0.000 0.000
3451 3450 3453 3457 3 -0.778 -2.335 0.000 3.113 -0.000 0.000
3452 3450 3453 3454 3 -0.778 -2.335 0.000 3.113 -0.000 0.000
3452 3450 3453 3457 3 -0.778 -2.335 0.000 3.113 -0.000 0.000
3454 3450 3453 3457 4 180.000 10.460 2
3453 3454 3501 3498 3 2.928800 -1.464400 0.209200 -1.673600 0.000000 0.000000
3453 3454 3501 3502 3 2.928800 -1.464400 0.209200 -1.673600 0.000000 0.000000
3453 3454 3501 3505 3 2.928800 -1.464400 0.209200 -1.673600 0.000000 0.000000
3453 3457 3459 3460 3 31.206 -9.768 -21.439 -0.000 -0.000 0.000
3454 3453 3457 3458 3 30.334 -5.230 -25.104 -0.000 -0.000 0.000
3454 3453 3457 3459 3 -5.858 -6.694 12.552 -0.000 -0.000 0.000
3455 3453 3454 3456 4 180.000 10.460 2
3457 3453 3454 3455 3 58.576 0.000 -58.576 -0.000 -0.000 0.000
3457 3453 3454 3456 3 58.576 0.000 -58.576 -0.000 -0.000 0.000
3457 3453 3454 3501 3 2.928800 -1.464400 0.209200 -1.673600 0.000000 0.000000
3458 3453 3457 3459 4 180.000 43.932 2
3454 3501 3502 3503 3 0.627600 1.882800 0.000000 -2.510400 0.000000 0.000000
3454 3501 3502 3504 3 0.627600 1.882800 0.000000 -2.510400 0.000000 0.000000
3454 3501 3502 3537 3 2.928800 -1.464400 0.209200 -1.673600 0.000000 0.000000
3454 3501 3505 3506 3 2.874410 0.581580 2.092000 -5.547990 0.000000 0.000000
3454 3501 3505 3507 3 2.874410 0.581580 2.092000 -5.547990 0.000000 0.000000
3455 3454 3501 3498 3 0.627600 1.882800 0.000000 -2.510400 0.000000 0.000000
3455 3454 3501 3502 3 0.627600 1.882800 0.000000 -2.510400 0.000000 0.000000
3455 3454 3501 3505 3 0.627600 1.882800 0.000000 -2.510400 0.000000 0.000000
3456 3454 3501 3498 3 0.627600 1.882800 0.000000 -2.510400 0.000000 0.000000
3456 3454 3501 3502 3 0.627600 1.882800 0.000000 -2.510400 0.000000 0.000000
3456 3454 3501 3505 3 0.627600 1.882800 0.000000 -2.510400 0.000000 0.000000
3497 3498 3501 3454 3 0.627600 1.882800 0.000000 -2.510400 0.000000 0.000000
3499 3498 3501 3454 3 0.627600 1.882800 0.000000 -2.510400 0.000000 0.000000
3500 3498 3501 3454 3 0.627600 1.882800 0.000000 -2.510400 0.000000 0.000000
3457 3459 3460 3461 3 0.414 1.243 0.000 -1.657 -0.000 0.000
3457 3459 3460 3462 3 0.414 1.243 0.000 -1.657 -0.000 0.000
3457 3459 3460 3463 3 -2.197 5.201 0.527 -3.531 -0.000 0.000
3458 3457 3459 3460 3 21.439 0.000 -21.439 -0.000 -0.000 0.000
3459 3460 3463 3464 3 0.979 2.937 0.000 -3.916 -0.000 0.000
3459 3460 3463 3465 3 0.979 2.937 0.000 -3.916 -0.000 0.000
3459 3460 3463 3466 3 2.874 0.582 2.092 -5.548 -0.000 0.000
3460 3463 3466 3467 3 0.628 1.883 0.000 -2.510 -0.000 0.000
3460 3463 3466 3468 3 0.628 1.883 0.000 -2.510 -0.000 0.000
3460 3463 3466 3469 3 2.301 -1.464 0.837 -1.674 -0.000 0.000
3461 3460 3463 3464 3 0.628 1.883 0.000 -2.510 -0.000 0.000
3461 3460 3463 3465 3 0.628 1.883 0.000 -2.510 -0.000 0.000
3461 3460 3463 3466 3 0.628 1.883 0.000 -2.510 -0.000 0.000
3462 3460 3463 3464 3 0.628 1.883 0.000 -2.510 -0.000 0.000
3462 3460 3463 3465 3 0.628 1.883 0.000 -2.510 -0.000 0.000
3462 3460 3463 3466 3 0.628 1.883 0.000 -2.510 -0.000 0.000
3463 3466 3469 3470 3 0.628 1.883 0.000 -2.510 -0.000 0.000
3463 3466 3469 3471 3 0.628 1.883 0.000 -2.510 -0.000 0.000
3463 3466 3469 3472 3 2.301 -1.464 0.837 -1.674 -0.000 0.000
3464 3463 3466 3467 3 0.628 1.883 0.000 -2.510 -0.000 0.000
3464 3463 3466 3468 3 0.628 1.883 0.000 -2.510 -0.000 0.000
3464 3463 3466 3469 3 0.628 1.883 0.000 -2.510 -0.000 0.000
3465 3463 3466 3467 3 0.628 1.883 0.000 -2.510 -0.000 0.000
3465 3463 3466 3468 3 0.628 1.883 0.000 -2.510 -0.000 0.000
3465 3463 3466 3469 3 0.628 1.883 0.000 -2.510 -0.000 0.000
3466 3469 3472 3473 3 0.628 1.883 0.000 -2.510 -0.000 0.000
3466 3469 3472 3474 3 0.628 1.883 0.000 -2.510 -0.000 0.000
3466 3469 3472 3475 3 2.301 -1.464 0.837 -1.674 -0.000 0.000
3467 3466 3469 3470 3 0.628 1.883 0.000 -2.510 -0.000 0.000
3467 3466 3469 3471 3 0.628 1.883 0.000 -2.510 -0.000 0.000
3467 3466 3469 3472 3 0.628 1.883 0.000 -2.510 -0.000 0.000
3468 3466 3469 3470 3 0.628 1.883 0.000 -2.510 -0.000 0.000
3468 3466 3469 3471 3 0.628 1.883 0.000 -2.510 -0.000 0.000
3468 3466 3469 3472 3 0.628 1.883 0.000 -2.510 -0.000 0.000
3469 3472 3475 3476 3 0.628 1.883 0.000 -2.510 -0.000 0.000
3469 3472 3475 3477 3 0.628 1.883 0.000 -2.510 -0.000 0.000
3469 3472 3475 3478 3 2.301 -1.464 0.837 -1.674 -0.000 0.000
3470 3469 3472 3473 3 0.628 1.883 0.000 -2.510 -0.000 0.000
3470 3469 3472 3474 3 0.628 1.883 0.000 -2.510 -0.000 0.000
3470 3469 3472 3475 3 0.628 1.883 0.000 -2.510 -0.000 0.000
3471 3469 3472 3473 3 0.628 1.883 0.000 -2.510 -0.000 0.000
3471 3469 3472 3474 3 0.628 1.883 0.000 -2.510 -0.000 0.000
3471 3469 3472 3475 3 0.628 1.883 0.000 -2.510 -0.000 0.000
3472 3475 3478 3479 3 0.628 1.883 0.000 -2.510 -0.000 0.000
3472 3475 3478 3480 3 0.628 1.883 0.000 -2.510 -0.000 0.000
3472 3475 3478 3481 3 2.301 -1.464 0.837 -1.674 -0.000 0.000
3473 3472 3475 3476 3 0.628 1.883 0.000 -2.510 -0.000 0.000
3473 3472 3475 3477 3 0.628 1.883 0.000 -2.510 -0.000 0.000
3473 3472 3475 3478 3 0.628 1.883 0.000 -2.510 -0.000 0.000
3474 3472 3475 3476 3 0.628 1.883 0.000 -2.510 -0.000 0.000
3474 3472 3475 3477 3 0.628 1.883 0.000 -2.510 -0.000 0.000
3474 3472 3475 3478 3 0.628 1.883 0.000 -2.510 -0.000 0.000
3475 3478 3481 3482 3 0.628 1.883 0.000 -2.510 -0.000 0.000
3475 3478 3481 3483 3 0.628 1.883 0.000 -2.510 -0.000 0.000
3475 3478 3481 3484 3 2.301 -1.464 0.837 -1.674 -0.000 0.000
3476 3475 3478 3479 3 0.628 1.883 0.000 -2.510 -0.000 0.000
3476 3475 3478 3480 3 0.628 1.883 0.000 -2.510 -0.000 0.000
3476 3475 3478 3481 3 0.628 1.883 0.000 -2.510 -0.000 0.000
3477 3475 3478 3479 3 0.628 1.883 0.000 -2.510 -0.000 0.000
3477 3475 3478 3480 3 0.628 1.883 0.000 -2.510 -0.000 0.000
3477 3475 3478 3481 3 0.628 1.883 0.000 -2.510 -0.000 0.000
3478 3481 3484 3485 3 0.628 1.883 0.000 -2.510 -0.000 0.000
3478 3481 3484 3486 3 0.628 1.883 0.000 -2.510 -0.000 0.000
3478 3481 3484 3487 3 2.301 -1.464 0.837 -1.674 -0.000 0.000
3479 3478 3481 3482 3 0.628 1.883 0.000 -2.510 -0.000 0.000
3479 3478 3481 3483 3 0.628 1.883 0.000 -2.510 -0.000 0.000
3479 3478 3481 3484 3 0.628 1.883 0.000 -2.510 -0.000 0.000
3480 3478 3481 3482 3 0.628 1.883 0.000 -2.510 -0.000 0.000
3480 3478 3481 3483 3 0.628 1.883 0.000 -2.510 -0.000 0.000
3480 3478 3481 3484 3 0.628 1.883 0.000 -2.510 -0.000 0.000
3481 3484 3487 3488 3 0.628 1.883 0.000 -2.510 -0.000 0.000
3481 3484 3487 3489 3 0.628 1.883 0.000 -2.510 -0.000 0.000
3481 3484 3487 3490 3 2.301 -1.464 0.837 -1.674 -0.000 0.000
3482 3481 3484 3485 3 0.628 1.883 0.000 -2.510 -0.000 0.000
3482 3481 3484 3486 3 0.628 1.883 0.000 -2.510 -0.000 0.000
3482 3481 3484 3487 3 0.628 1.883 0.000 -2.510 -0.000 0.000
3483 3481 3484 3485 3 0.628 1.883 0.000 -2.510 -0.000 0.000
3483 3481 3484 3486 3 0.628 1.883 0.000 -2.510 -0.000 0.000
3483 3481 3484 3487 3 0.628 1.883 0.000 -2.510 -0.000 0.000
3484 3487 3490 3491 3 0.628 1.883 0.000 -2.510 -0.000 0.000
3484 3487 3490 3492 3 0.628 1.883 0.000 -2.510 -0.000 0.000
3484 3487 3490 3493 3 2.301 -1.464 0.837 -1.674 -0.000 0.000
3485 3484 3487 3488 3 0.628 1.883 0.000 -2.510 -0.000 0.000
3485 3484 3487 3489 3 0.628 1.883 0.000 -2.510 -0.000 0.000
3485 3484 3487 3490 3 0.628 1.883 0.000 -2.510 -0.000 0.000
3486 3484 3487 3488 3 0.628 1.883 0.000 -2.510 -0.000 0.000
3486 3484 3487 3489 3 0.628 1.883 0.000 -2.510 -0.000 0.000
3486 3484 3487 3490 3 0.628 1.883 0.000 -2.510 -0.000 0.000
3487 3490 3493 3494 3 0.628 1.883 0.000 -2.510 -0.000 0.000
3487 3490 3493 3495 3 0.628 1.883 0.000 -2.510 -0.000 0.000
3487 3490 3493 3496 3 0.628 1.883 0.000 -2.510 -0.000 0.000
3488 3487 3490 3491 3 0.628 1.883 0.000 -2.510 -0.000 0.000
3488 3487 3490 3492 3 0.628 1.883 0.000 -2.510 -0.000 0.000
3488 3487 3490 3493 3 0.628 1.883 0.000 -2.510 -0.000 0.000
3489 3487 3490 3491 3 0.628 1.883 0.000 -2.510 -0.000 0.000
3489 3487 3490 3492 3 0.628 1.883 0.000 -2.510 -0.000 0.000
3489 3487 3490 3493 3 0.628 1.883 0.000 -2.510 -0.000 0.000
3491 3490 3493 3494 3 0.628 1.883 0.000 -2.510 -0.000 0.000
3491 3490 3493 3495 3 0.628 1.883 0.000 -2.510 -0.000 0.000
3491 3490 3493 3496 3 0.628 1.883 0.000 -2.510 -0.000 0.000
3492 3490 3493 3494 3 0.628 1.883 0.000 -2.510 -0.000 0.000
3492 3490 3493 3495 3 0.628 1.883 0.000 -2.510 -0.000 0.000
3492 3490 3493 3496 3 0.628 1.883 0.000 -2.510 -0.000 0.000
3497 3498 3501 3502 3 -0.778 -2.335 0.000 3.113 -0.000 0.000
3497 3498 3501 3505 3 -0.778 -2.335 0.000 3.113 -0.000 0.000
3498 3501 3502 3503 3 58.576 0.000 -58.576 -0.000 -0.000 0.000
3498 3501 3502 3504 3 58.576 0.000 -58.576 -0.000 -0.000 0.000
3498 3501 3502 3537 3 2.928800 -1.464400 0.209200 -1.673600 0.000000 0.000000
3498 3501 3505 3506 3 1.789 -5.052 -0.962 4.226 -0.000 0.000
3498 3501 3505 3507 3 1.789 -5.052 -0.962 4.226 -0.000 0.000
3499 3498 3501 3502 3 -0.778 -2.335 0.000 3.113 -0.000 0.000
3499 3498 3501 3505 3 -0.778 -2.335 0.000 3.113 -0.000 0.000
3500 3498 3501 3502 3 -0.778 -2.335 0.000 3.113 -0.000 0.000
3500 3498 3501 3505 3 -0.778 -2.335 0.000 3.113 -0.000 0.000
3502 3498 3501 3505 4 180.000 10.460 2
3501 3502 3537 3534 3 2.928800 -1.464400 0.209200 -1.673600 0.000000 0.000000
3501 3502 3537 3538 3 2.928800 -1.464400 0.209200 -1.673600 0.000000 0.000000
3501 3502 3537 3541 3 2.928800 -1.464400 0.209200 -1.673600 0.000000 0.000000
3501 3505 3507 3508 3 31.206 -9.768 -21.439 -0.000 -0.000 0.000
3502 3501 3505 3506 3 30.334 -5.230 -25.104 -0.000 -0.000 0.000
3502 3501 3505 3507 3 -5.858 -6.694 12.552 -0.000 -0.000 0.000
3503 3501 3502 3504 4 180.000 10.460 2
3505 3501 3502 3503 3 58.576 0.000 -58.576 -0.000 -0.000 0.000
3505 3501 3502 3504 3 58.576 0.000 -58.576 -0.000 -0.000 0.000
3505 3501 3502 3537 3 2.928800 -1.464400 0.209200 -1.673600 0.000000 0.000000
3506 3501 3505 3507 4 180.000 43.932 2
3502 3537 3538 3539 3 0.627600 1.882800 0.000000 -2.510400 0.000000 0.000000
3502 3537 3538 3540 3 0.627600 1.882800 0.000000 -2.510400 0.000000 0.000000
3502 3537 3538 3573 3 2.928800 -1.464400 0.209200 -1.673600 0.000000 0.000000
3502 3537 3541 3542 3 2.874410 0.581580 2.092000 -5.547990 0.000000 0.000000
3502 3537 3541 3543 3 2.874410 0.581580 2.092000 -5.547990 0.000000 0.000000
3503 3502 3537 3534 3 0.627600 1.882800 0.000000 -2.510400 0.000000 0.000000
3503 3502 3537 3538 3 0.627600 1.882800 0.000000 -2.510400 0.000000 0.000000
3503 3502 3537 3541 3 0.627600 1.882800 0.000000 -2.510400 0.000000 0.000000
3504 3502 3537 3534 3 0.627600 1.882800 0.000000 -2.510400 0.000000 0.000000
3504 3502 3537 3538 3 0.627600 1.882800 0.000000 -2.510400 0.000000 0.000000
3504 3502 3537 3541 3 0.627600 1.882800 0.000000 -2.510400 0.000000 0.000000
3533 3534 3537 3502 3 0.627600 1.882800 0.000000 -2.510400 0.000000 0.000000
3535 3534 3537 3502 3 0.627600 1.882800 0.000000 -2.510400 0.000000 0.000000
3536 3534 3537 3502 3 0.627600 1.882800 0.000000 -2.510400 0.000000 0.000000
3505 3507 3508 3509 3 0.414 1.243 0.000 -1.657 -0.000 0.000
3505 3507 3508 3510 3 0.414 1.243 0.000 -1.657 -0.000 0.000
3505 3507 3508 3511 3 -2.197 5.201 0.527 -3.531 -0.000 0.000
3506 3505 3507 3508 3 21.439 0.000 -21.439 -0.000 -0.000 0.000
3507 3508 3511 3512 3 0.979 2.937 0.000 -3.916 -0.000 0.000
3507 3508 3511 3513 3 2.874 0.582 2.092 -5.548 -0.000 0.000
3507 3508 3511 3520 3 2.874 0.582 2.092 -5.548 -0.000 0.000
3508 3511 3513 3514 3 0.628 1.883 0.000 -2.510 -0.000 0.000
3508 3511 3513 3515 3 0.628 1.883 0.000 -2.510 -0.000 0.000
3508 3511 3513 3516 3 2.301 -1.464 0.837 -1.674 -0.000 0.000
3508 3511 3520 3521 3 0.628 1.883 0.000 -2.510 -0.000 0.000
3508 3511 3520 3522 3 0.628 1.883 0.000 -2.510 -0.000 0.000
3508 3511 3520 3523 3 2.301 -1.464 0.837 -1.674 -0.000 0.000
3509 3508 3511 3512 3 0.628 1.883 0.000 -2.510 -0.000 0.000
3509 3508 3511 3513 3 0.628 1.883 0.000 -2.510 -0.000 0.000
3509 3508 3511 3520 3 0.628 1.883 0.000 -2.510 -0.000 0.000
3510 3508 3511 3512 3 0.628 1.883 0.000 -2.510 -0.000 0.000
3510 3508 3511 3513 3 0.628 1.883 0.000 -2.510 -0.000 0.000
3510 3508 3511 3520 3 0.628 1.883 0.000 -2.510 -0.000 0.000
3511 3513 3516 3517 3 0.628 1.883 0.000 -2.510 -0.000 0.000
3511 3513 3516 3518 3 0.628 1.883 0.000 -2.510 -0.000 0.000
3511 3513 3516 3519 3 0.628 1.883 0.000 -2.510 -0.000 0.000
3511 3520 3523 3524 3 0.628 1.883 0.000 -2.510 -0.000 0.000
3511 3520 3523 3525 3 0.628 1.883 0.000 -2.510 -0.000 0.000
3511 3520 3523 3526 3 2.301 -1.464 0.837 -1.674 -0.000 0.000
3512 3511 3513 3514 3 0.628 1.883 0.000 -2.510 -0.000 0.000
3512 3511 3513 3515 3 0.628 1.883 0.000 -2.510 -0.000 0.000
3512 3511 3513 3516 3 0.628 1.883 0.000 -2.510 -0.000 0.000
3512 3511 3520 3521 3 0.628 1.883 0.000 -2.510 -0.000 0.000
3512 3511 3520 3522 3 0.628 1.883 0.000 -2.510 -0.000 0.000
3512 3511 3520 3523 3 0.628 1.883 0.000 -2.510 -0.000 0.000
3513 3511 3520 3521 3 0.628 1.883 0.000 -2.510 -0.000 0.000
3513 3511 3520 3522 3 0.628 1.883 0.000 -2.510 -0.000 0.000
3513 3511 3520 3523 3 2.301 -1.464 0.837 -1.674 -0.000 0.000
3520 3511 3513 3514 3 0.628 1.883 0.000 -2.510 -0.000 0.000
3520 3511 3513 3515 3 0.628 1.883 0.000 -2.510 -0.000 0.000
3520 3511 3513 3516 3 2.301 -1.464 0.837 -1.674 -0.000 0.000
3514 3513 3516 3517 3 0.628 1.883 0.000 -2.510 -0.000 0.000
3514 3513 3516 3518 3 0.628 1.883 0.000 -2.510 -0.000 0.000
3514 3513 3516 3519 3 0.628 1.883 0.000 -2.510 -0.000 0.000
3515 3513 3516 3517 3 0.628 1.883 0.000 -2.510 -0.000 0.000
3515 3513 3516 3518 3 0.628 1.883 0.000 -2.510 -0.000 0.000
3515 3513 3516 3519 3 0.628 1.883 0.000 -2.510 -0.000 0.000
3520 3523 3526 3527 3 0.628 1.883 0.000 -2.510 -0.000 0.000
3520 3523 3526 3528 3 0.628 1.883 0.000 -2.510 -0.000 0.000
3520 3523 3526 3529 3 2.301 -1.464 0.837 -1.674 -0.000 0.000
3521 3520 3523 3524 3 0.628 1.883 0.000 -2.510 -0.000 0.000
3521 3520 3523 3525 3 0.628 1.883 0.000 -2.510 -0.000 0.000
3521 3520 3523 3526 3 0.628 1.883 0.000 -2.510 -0.000 0.000
3522 3520 3523 3524 3 0.628 1.883 0.000 -2.510 -0.000 0.000
3522 3520 3523 3525 3 0.628 1.883 0.000 -2.510 -0.000 0.000
3522 3520 3523 3526 3 0.628 1.883 0.000 -2.510 -0.000 0.000
3523 3526 3529 3530 3 0.628 1.883 0.000 -2.510 -0.000 0.000
3523 3526 3529 3531 3 0.628 1.883 0.000 -2.510 -0.000 0.000
3523 3526 3529 3532 3 0.628 1.883 0.000 -2.510 -0.000 0.000
3524 3523 3526 3527 3 0.628 1.883 0.000 -2.510 -0.000 0.000
3524 3523 3526 3528 3 0.628 1.883 0.000 -2.510 -0.000 0.000
3524 3523 3526 3529 3 0.628 1.883 0.000 -2.510 -0.000 0.000
3525 3523 3526 3527 3 0.628 1.883 0.000 -2.510 -0.000 0.000
3525 3523 3526 3528 3 0.628 1.883 0.000 -2.510 -0.000 0.000
3525 3523 3526 3529 3 0.628 1.883 0.000 -2.510 -0.000 0.000
3527 3526 3529 3530 3 0.628 1.883 0.000 -2.510 -0.000 0.000
3527 3526 3529 3531 3 0.628 1.883 0.000 -2.510 -0.000 0.000
3527 3526 3529 3532 3 0.628 1.883 0.000 -2.510 -0.000 0.000
3528 3526 3529 3530 3 0.628 1.883 0.000 -2.510 -0.000 0.000
3528 3526 3529 3531 3 0.628 1.883 0.000 -2.510 -0.000 0.000
3528 3526 3529 3532 3 0.628 1.883 0.000 -2.510 -0.000 0.000
3533 3534 3537 3538 3 -0.778 -2.335 0.000 3.113 -0.000 0.000
3533 3534 3537 3541 3 -0.778 -2.335 0.000 3.113 -0.000 0.000
3534 3537 3538 3539 3 58.576 0.000 -58.576 -0.000 -0.000 0.000
3534 3537 3538 3540 3 58.576 0.000 -58.576 -0.000 -0.000 0.000
3534 3537 3538 3573 3 2.928800 -1.464400 0.209200 -1.673600 0.000000 0.000000
3534 3537 3541 3542 3 1.789 -5.052 -0.962 4.226 -0.000 0.000
3534 3537 3541 3543 3 1.789 -5.052 -0.962 4.226 -0.000 0.000
3535 3534 3537 3538 3 -0.778 -2.335 0.000 3.113 -0.000 0.000
3535 3534 3537 3541 3 -0.778 -2.335 0.000 3.113 -0.000 0.000
3536 3534 3537 3538 3 -0.778 -2.335 0.000 3.113 -0.000 0.000
3536 3534 3537 3541 3 -0.778 -2.335 0.000 3.113 -0.000 0.000
3538 3534 3537 3541 4 180.000 10.460 2
3537 3538 3573 3570 3 2.928800 -1.464400 0.209200 -1.673600 0.000000 0.000000
3537 3538 3573 3574 3 2.928800 -1.464400 0.209200 -1.673600 0.000000 0.000000
3537 3538 3573 3577 3 2.928800 -1.464400 0.209200 -1.673600 0.000000 0.000000
3537 3541 3543 3544 3 31.206 -9.768 -21.439 -0.000 -0.000 0.000
3538 3537 3541 3542 3 30.334 -5.230 -25.104 -0.000 -0.000 0.000
3538 3537 3541 3543 3 -5.858 -6.694 12.552 -0.000 -0.000 0.000
3539 3537 3538 3540 4 180.000 10.460 2
3541 3537 3538 3539 3 58.576 0.000 -58.576 -0.000 -0.000 0.000
3541 3537 3538 3540 3 58.576 0.000 -58.576 -0.000 -0.000 0.000
3541 3537 3538 3573 3 2.928800 -1.464400 0.209200 -1.673600 0.000000 0.000000
3542 3537 3541 3543 4 180.000 43.932 2
3538 3573 3574 3575 3 0.627600 1.882800 0.000000 -2.510400 0.000000 0.000000
3538 3573 3574 3576 3 0.627600 1.882800 0.000000 -2.510400 0.000000 0.000000
3538 3573 3574 3609 3 2.928800 -1.464400 0.209200 -1.673600 0.000000 0.000000
3538 3573 3577 3578 3 2.874410 0.581580 2.092000 -5.547990 0.000000 0.000000
3538 3573 3577 3579 3 2.874410 0.581580 2.092000 -5.547990 0.000000 0.000000
3539 3538 3573 3570 3 0.627600 1.882800 0.000000 -2.510400 0.000000 0.000000
3539 3538 3573 3574 3 0.627600 1.882800 0.000000 -2.510400 0.000000 0.000000
3539 3538 3573 3577 3 0.627600 1.882800 0.000000 -2.510400 0.000000 0.000000
3540 3538 3573 3570 3 0.627600 1.882800 0.000000 -2.510400 0.000000 0.000000
3540 3538 3573 3574 3 0.627600 1.882800 0.000000 -2.510400 0.000000 0.000000
3540 3538 3573 3577 3 0.627600 1.882800 0.000000 -2.510400 0.000000 0.000000
3569 3570 3573 3538 3 0.627600 1.882800 0.000000 -2.510400 0.000000 0.000000
3571 3570 3573 3538 3 0.627600 1.882800 0.000000 -2.510400 0.000000 0.000000
3572 3570 3573 3538 3 0.627600 1.882800 0.000000 -2.510400 0.000000 0.000000
3541 3543 3544 3545 3 0.414 1.243 0.000 -1.657 -0.000 0.000
3541 3543 3544 3546 3 0.414 1.243 0.000 -1.657 -0.000 0.000
3541 3543 3544 3547 3 -2.197 5.201 0.527 -3.531 -0.000 0.000
3542 3541 3543 3544 3 21.439 0.000 -21.439 -0.000 -0.000 0.000
3543 3544 3547 3548 3 0.979 2.937 0.000 -3.916 -0.000 0.000
3543 3544 3547 3549 3 2.874 0.582 2.092 -5.548 -0.000 0.000
3543 3544 3547 3556 3 2.874 0.582 2.092 -5.548 -0.000 0.000
3544 3547 3549 3550 3 0.628 1.883 0.000 -2.510 -0.000 0.000
3544 3547 3549 3551 3 0.628 1.883 0.000 -2.510 -0.000 0.000
3544 3547 3549 3552 3 2.301 -1.464 0.837 -1.674 -0.000 0.000
3544 3547 3556 3557 3 0.628 1.883 0.000 -2.510 -0.000 0.000
3544 3547 3556 3558 3 0.628 1.883 0.000 -2.510 -0.000 0.000
3544 3547 3556 3559 3 2.301 -1.464 0.837 -1.674 -0.000 0.000
3545 3544 3547 3548 3 0.628 1.883 0.000 -2.510 -0.000 0.000
3545 3544 3547 3549 3 0.628 1.883 0.000 -2.510 -0.000 0.000
3545 3544 3547 3556 3 0.628 1.883 0.000 -2.510 -0.000 0.000
3546 3544 3547 3548 3 0.628 1.883 0.000 -2.510 -0.000 0.000
3546 3544 3547 3549 3 0.628 1.883 0.000 -2.510 -0.000 0.000
3546 3544 3547 3556 3 0.628 1.883 0.000 -2.510 -0.000 0.000
3547 3549 3552 3553 3 0.628 1.883 0.000 -2.510 -0.000 0.000
3547 3549 3552 3554 3 0.628 1.883 0.000 -2.510 -0.000 0.000
3547 3549 3552 3555 3 0.628 1.883 0.000 -2.510 -0.000 0.000
3547 3556 3559 3560 3 0.628 1.883 0.000 -2.510 -0.000 0.000
3547 3556 3559 3561 3 0.628 1.883 0.000 -2.510 -0.000 0.000
3547 3556 3559 3562 3 2.301 -1.464 0.837 -1.674 -0.000 0.000
3548 3547 3549 3550 3 0.628 1.883 0.000 -2.510 -0.000 0.000
3548 3547 3549 3551 3 0.628 1.883 0.000 -2.510 -0.000 0.000
3548 3547 3549 3552 3 0.628 1.883 0.000 -2.510 -0.000 0.000
3548 3547 3556 3557 3 0.628 1.883 0.000 -2.510 -0.000 0.000
3548 3547 3556 3558 3 0.628 1.883 0.000 -2.510 -0.000 0.000
3548 3547 3556 3559 3 0.628 1.883 0.000 -2.510 -0.000 0.000
3549 3547 3556 3557 3 0.628 1.883 0.000 -2.510 -0.000 0.000
3549 3547 3556 3558 3 0.628 1.883 0.000 -2.510 -0.000 0.000
3549 3547 3556 3559 3 2.301 -1.464 0.837 -1.674 -0.000 0.000
3556 3547 3549 3550 3 0.628 1.883 0.000 -2.510 -0.000 0.000
3556 3547 3549 3551 3 0.628 1.883 0.000 -2.510 -0.000 0.000
3556 3547 3549 3552 3 2.301 -1.464 0.837 -1.674 -0.000 0.000
3550 3549 3552 3553 3 0.628 1.883 0.000 -2.510 -0.000 0.000
3550 3549 3552 3554 3 0.628 1.883 0.000 -2.510 -0.000 0.000
3550 3549 3552 3555 3 0.628 1.883 0.000 -2.510 -0.000 0.000
3551 3549 3552 3553 3 0.628 1.883 0.000 -2.510 -0.000 0.000
3551 3549 3552 3554 3 0.628 1.883 0.000 -2.510 -0.000 0.000
3551 3549 3552 3555 3 0.628 1.883 0.000 -2.510 -0.000 0.000
3556 3559 3562 3563 3 0.628 1.883 0.000 -2.510 -0.000 0.000
3556 3559 3562 3564 3 0.628 1.883 0.000 -2.510 -0.000 0.000
3556 3559 3562 3565 3 2.301 -1.464 0.837 -1.674 -0.000 0.000
3557 3556 3559 3560 3 0.628 1.883 0.000 -2.510 -0.000 0.000
3557 3556 3559 3561 3 0.628 1.883 0.000 -2.510 -0.000 0.000
3557 3556 3559 3562 3 0.628 1.883 0.000 -2.510 -0.000 0.000
3558 3556 3559 3560 3 0.628 1.883 0.000 -2.510 -0.000 0.000
3558 3556 3559 3561 3 0.628 1.883 0.000 -2.510 -0.000 0.000
3558 3556 3559 3562 3 0.628 1.883 0.000 -2.510 -0.000 0.000
3559 3562 3565 3566 3 0.628 1.883 0.000 -2.510 -0.000 0.000
3559 3562 3565 3567 3 0.628 1.883 0.000 -2.510 -0.000 0.000
3559 3562 3565 3568 3 0.628 1.883 0.000 -2.510 -0.000 0.000
3560 3559 3562 3563 3 0.628 1.883 0.000 -2.510 -0.000 0.000
3560 3559 3562 3564 3 0.628 1.883 0.000 -2.510 -0.000 0.000
3560 3559 3562 3565 3 0.628 1.883 0.000 -2.510 -0.000 0.000
3561 3559 3562 3563 3 0.628 1.883 0.000 -2.510 -0.000 0.000
3561 3559 3562 3564 3 0.628 1.883 0.000 -2.510 -0.000 0.000
3561 3559 3562 3565 3 0.628 1.883 0.000 -2.510 -0.000 0.000
3563 3562 3565 3566 3 0.628 1.883 0.000 -2.510 -0.000 0.000
3563 3562 3565 3567 3 0.628 1.883 0.000 -2.510 -0.000 0.000
3563 3562 3565 3568 3 0.628 1.883 0.000 -2.510 -0.000 0.000
3564 3562 3565 3566 3 0.628 1.883 0.000 -2.510 -0.000 0.000
3564 3562 3565 3567 3 0.628 1.883 0.000 -2.510 -0.000 0.000
3564 3562 3565 3568 3 0.628 1.883 0.000 -2.510 -0.000 0.000
3569 3570 3573 3574 3 -0.778 -2.335 0.000 3.113 -0.000 0.000
3569 3570 3573 3577 3 -0.778 -2.335 0.000 3.113 -0.000 0.000
3570 3573 3574 3575 3 58.576 0.000 -58.576 -0.000 -0.000 0.000
3570 3573 3574 3576 3 58.576 0.000 -58.576 -0.000 -0.000 0.000
3570 3573 3574 3609 3 2.928800 -1.464400 0.209200 -1.673600 0.000000 0.000000
3570 3573 3577 3578 3 1.789 -5.052 -0.962 4.226 -0.000 0.000
3570 3573 3577 3579 3 1.789 -5.052 -0.962 4.226 -0.000 0.000
3571 3570 3573 3574 3 -0.778 -2.335 0.000 3.113 -0.000 0.000
3571 3570 3573 3577 3 -0.778 -2.335 0.000 3.113 -0.000 0.000
3572 3570 3573 3574 3 -0.778 -2.335 0.000 3.113 -0.000 0.000
3572 3570 3573 3577 3 -0.778 -2.335 0.000 3.113 -0.000 0.000
3574 3570 3573 3577 4 180.000 10.460 2
3573 3574 3609 3606 3 2.928800 -1.464400 0.209200 -1.673600 0.000000 0.000000
3573 3574 3609 3610 3 2.928800 -1.464400 0.209200 -1.673600 0.000000 0.000000
3573 3574 3609 3613 3 2.928800 -1.464400 0.209200 -1.673600 0.000000 0.000000
3573 3577 3579 3580 3 31.206 -9.768 -21.439 -0.000 -0.000 0.000
3574 3573 3577 3578 3 30.334 -5.230 -25.104 -0.000 -0.000 0.000
3574 3573 3577 3579 3 -5.858 -6.694 12.552 -0.000 -0.000 0.000
3575 3573 3574 3576 4 180.000 10.460 2
3577 3573 3574 3575 3 58.576 0.000 -58.576 -0.000 -0.000 0.000
3577 3573 3574 3576 3 58.576 0.000 -58.576 -0.000 -0.000 0.000
3577 3573 3574 3609 3 2.928800 -1.464400 0.209200 -1.673600 0.000000 0.000000
3578 3573 3577 3579 4 180.000 43.932 2
3574 3609 3610 3611 3 0.627600 1.882800 0.000000 -2.510400 0.000000 0.000000
3574 3609 3610 3612 3 0.627600 1.882800 0.000000 -2.510400 0.000000 0.000000
3574 3609 3610 3657 3 2.928800 -1.464400 0.209200 -1.673600 0.000000 0.000000
3574 3609 3613 3614 3 2.874410 0.581580 2.092000 -5.547990 0.000000 0.000000
3574 3609 3613 3615 3 2.874410 0.581580 2.092000 -5.547990 0.000000 0.000000
3575 3574 3609 3606 3 0.627600 1.882800 0.000000 -2.510400 0.000000 0.000000
3575 3574 3609 3610 3 0.627600 1.882800 0.000000 -2.510400 0.000000 0.000000
3575 3574 3609 3613 3 0.627600 1.882800 0.000000 -2.510400 0.000000 0.000000
3576 3574 3609 3606 3 0.627600 1.882800 0.000000 -2.510400 0.000000 0.000000
3576 3574 3609 3610 3 0.627600 1.882800 0.000000 -2.510400 0.000000 0.000000
3576 3574 3609 3613 3 0.627600 1.882800 0.000000 -2.510400 0.000000 0.000000
3605 3606 3609 3574 3 0.627600 1.882800 0.000000 -2.510400 0.000000 0.000000
3607 3606 3609 3574 3 0.627600 1.882800 0.000000 -2.510400 0.000000 0.000000
3608 3606 3609 3574 3 0.627600 1.882800 0.000000 -2.510400 0.000000 0.000000
3577 3579 3580 3581 3 0.414 1.243 0.000 -1.657 -0.000 0.000
3577 3579 3580 3582 3 0.414 1.243 0.000 -1.657 -0.000 0.000
3577 3579 3580 3583 3 -2.197 5.201 0.527 -3.531 -0.000 0.000
3578 3577 3579 3580 3 21.439 0.000 -21.439 -0.000 -0.000 0.000
3579 3580 3583 3584 3 0.979 2.937 0.000 -3.916 -0.000 0.000
3579 3580 3583 3585 3 2.874 0.582 2.092 -5.548 -0.000 0.000
3579 3580 3583 3592 3 2.874 0.582 2.092 -5.548 -0.000 0.000
3580 3583 3585 3586 3 0.628 1.883 0.000 -2.510 -0.000 0.000
3580 3583 3585 3587 3 0.628 1.883 0.000 -2.510 -0.000 0.000
3580 3583 3585 3588 3 2.301 -1.464 0.837 -1.674 -0.000 0.000
3580 3583 3592 3593 3 0.628 1.883 0.000 -2.510 -0.000 0.000
3580 3583 3592 3594 3 0.628 1.883 0.000 -2.510 -0.000 0.000
3580 3583 3592 3595 3 2.301 -1.464 0.837 -1.674 -0.000 0.000
3581 3580 3583 3584 3 0.628 1.883 0.000 -2.510 -0.000 0.000
3581 3580 3583 3585 3 0.628 1.883 0.000 -2.510 -0.000 0.000
3581 3580 3583 3592 3 0.628 1.883 0.000 -2.510 -0.000 0.000
3582 3580 3583 3584 3 0.628 1.883 0.000 -2.510 -0.000 0.000
3582 3580 3583 3585 3 0.628 1.883 0.000 -2.510 -0.000 0.000
3582 3580 3583 3592 3 0.628 1.883 0.000 -2.510 -0.000 0.000
3583 3585 3588 3589 3 0.628 1.883 0.000 -2.510 -0.000 0.000
3583 3585 3588 3590 3 0.628 1.883 0.000 -2.510 -0.000 0.000
3583 3585 3588 3591 3 0.628 1.883 0.000 -2.510 -0.000 0.000
3583 3592 3595 3596 3 0.628 1.883 0.000 -2.510 -0.000 0.000
3583 3592 3595 3597 3 0.628 1.883 0.000 -2.510 -0.000 0.000
3583 3592 3595 3598 3 2.301 -1.464 0.837 -1.674 -0.000 0.000
3584 3583 3585 3586 3 0.628 1.883 0.000 -2.510 -0.000 0.000
3584 3583 3585 3587 3 0.628 1.883 0.000 -2.510 -0.000 0.000
3584 3583 3585 3588 3 0.628 1.883 0.000 -2.510 -0.000 0.000
3584 3583 3592 3593 3 0.628 1.883 0.000 -2.510 -0.000 0.000
3584 3583 3592 3594 3 0.628 1.883 0.000 -2.510 -0.000 0.000
3584 3583 3592 3595 3 0.628 1.883 0.000 -2.510 -0.000 0.000
3585 3583 3592 3593 3 0.628 1.883 0.000 -2.510 -0.000 0.000
3585 3583 3592 3594 3 0.628 1.883 0.000 -2.510 -0.000 0.000
3585 3583 3592 3595 3 2.301 -1.464 0.837 -1.674 -0.000 0.000
3592 3583 3585 3586 3 0.628 1.883 0.000 -2.510 -0.000 0.000
3592 3583 3585 3587 3 0.628 1.883 0.000 -2.510 -0.000 0.000
3592 3583 3585 3588 3 2.301 -1.464 0.837 -1.674 -0.000 0.000
3586 3585 3588 3589 3 0.628 1.883 0.000 -2.510 -0.000 0.000
3586 3585 3588 3590 3 0.628 1.883 0.000 -2.510 -0.000 0.000
3586 3585 3588 3591 3 0.628 1.883 0.000 -2.510 -0.000 0.000
3587 3585 3588 3589 3 0.628 1.883 0.000 -2.510 -0.000 0.000
3587 3585 3588 3590 3 0.628 1.883 0.000 -2.510 -0.000 0.000
3587 3585 3588 3591 3 0.628 1.883 0.000 -2.510 -0.000 0.000
3592 3595 3598 3599 3 0.628 1.883 0.000 -2.510 -0.000 0.000
3592 3595 3598 3600 3 0.628 1.883 0.000 -2.510 -0.000 0.000
3592 3595 3598 3601 3 2.301 -1.464 0.837 -1.674 -0.000 0.000
3593 3592 3595 3596 3 0.628 1.883 0.000 -2.510 -0.000 0.000
3593 3592 3595 3597 3 0.628 1.883 0.000 -2.510 -0.000 0.000
3593 3592 3595 3598 3 0.628 1.883 0.000 -2.510 -0.000 0.000
3594 3592 3595 3596 3 0.628 1.883 0.000 -2.510 -0.000 0.000
3594 3592 3595 3597 3 0.628 1.883 0.000 -2.510 -0.000 0.000
3594 3592 3595 3598 3 0.628 1.883 0.000 -2.510 -0.000 0.000
3595 3598 3601 3602 3 0.628 1.883 0.000 -2.510 -0.000 0.000
3595 3598 3601 3603 3 0.628 1.883 0.000 -2.510 -0.000 0.000
3595 3598 3601 3604 3 0.628 1.883 0.000 -2.510 -0.000 0.000
3596 3595 3598 3599 3 0.628 1.883 0.000 -2.510 -0.000 0.000
3596 3595 3598 3600 3 0.628 1.883 0.000 -2.510 -0.000 0.000
3596 3595 3598 3601 3 0.628 1.883 0.000 -2.510 -0.000 0.000
3597 3595 3598 3599 3 0.628 1.883 0.000 -2.510 -0.000 0.000
3597 3595 3598 3600 3 0.628 1.883 0.000 -2.510 -0.000 0.000
3597 3595 3598 3601 3 0.628 1.883 0.000 -2.510 -0.000 0.000
3599 3598 3601 3602 3 0.628 1.883 0.000 -2.510 -0.000 0.000
3599 3598 3601 3603 3 0.628 1.883 0.000 -2.510 -0.000 0.000
3599 3598 3601 3604 3 0.628 1.883 0.000 -2.510 -0.000 0.000
3600 3598 3601 3602 3 0.628 1.883 0.000 -2.510 -0.000 0.000
3600 3598 3601 3603 3 0.628 1.883 0.000 -2.510 -0.000 0.000
3600 3598 3601 3604 3 0.628 1.883 0.000 -2.510 -0.000 0.000
3605 3606 3609 3610 3 -0.778 -2.335 0.000 3.113 -0.000 0.000
3605 3606 3609 3613 3 -0.778 -2.335 0.000 3.113 -0.000 0.000
3606 3609 3610 3611 3 58.576 0.000 -58.576 -0.000 -0.000 0.000
3606 3609 3610 3612 3 58.576 0.000 -58.576 -0.000 -0.000 0.000
3606 3609 3610 3657 3 2.928800 -1.464400 0.209200 -1.673600 0.000000 0.000000
3606 3609 3613 3614 3 1.789 -5.052 -0.962 4.226 -0.000 0.000
3606 3609 3613 3615 3 1.789 -5.052 -0.962 4.226 -0.000 0.000
3607 3606 3609 3610 3 -0.778 -2.335 0.000 3.113 -0.000 0.000
3607 3606 3609 3613 3 -0.778 -2.335 0.000 3.113 -0.000 0.000
3608 3606 3609 3610 3 -0.778 -2.335 0.000 3.113 -0.000 0.000
3608 3606 3609 3613 3 -0.778 -2.335 0.000 3.113 -0.000 0.000
3610 3606 3609 3613 4 180.000 10.460 2
3609 3610 3657 3654 3 2.928800 -1.464400 0.209200 -1.673600 0.000000 0.000000
3609 3610 3657 3658 3 2.928800 -1.464400 0.209200 -1.673600 0.000000 0.000000
3609 3610 3657 3661 3 2.928800 -1.464400 0.209200 -1.673600 0.000000 0.000000
3609 3613 3615 3616 3 31.206 -9.768 -21.439 -0.000 -0.000 0.000
3610 3609 3613 3614 3 30.334 -5.230 -25.104 -0.000 -0.000 0.000
3610 3609 3613 3615 3 -5.858 -6.694 12.552 -0.000 -0.000 0.000
3611 3609 3610 3612 4 180.000 10.460 2
3613 3609 3610 3611 3 58.576 0.000 -58.576 -0.000 -0.000 0.000
3613 3609 3610 3612 3 58.576 0.000 -58.576 -0.000 -0.000 0.000
3613 3609 3610 3657 3 2.928800 -1.464400 0.209200 -1.673600 0.000000 0.000000
3614 3609 3613 3615 4 180.000 43.932 2
3610 3657 3658 3659 3 0.627600 1.882800 0.000000 -2.510400 0.000000 0.000000
3610 3657 3658 3660 3 0.627600 1.882800 0.000000 -2.510400 0.000000 0.000000
3610 3657 3658 3723 3 2.928800 -1.464400 0.209200 -1.673600 0.000000 0.000000
3610 3657 3661 3662 3 2.874410 0.581580 2.092000 -5.547990 0.000000 0.000000
3610 3657 3661 3663 3 2.874410 0.581580 2.092000 -5.547990 0.000000 0.000000
3611 3610 3657 3654 3 0.627600 1.882800 0.000000 -2.510400 0.000000 0.000000
3611 3610 3657 3658 3 0.627600 1.882800 0.000000 -2.510400 0.000000 0.000000
3611 3610 3657 3661 3 0.627600 1.882800 0.000000 -2.510400 0.000000 0.000000
3612 3610 3657 3654 3 0.627600 1.882800 0.000000 -2.510400 0.000000 0.000000
3612 3610 3657 3658 3 0.627600 1.882800 0.000000 -2.510400 0.000000 0.000000
3612 3610 3657 3661 3 0.627600 1.882800 0.000000 -2.510400 0.000000 0.000000
3653 3654 3657 3610 3 0.627600 1.882800 0.000000 -2.510400 0.000000 0.000000
3655 3654 3657 3610 3 0.627600 1.882800 0.000000 -2.510400 0.000000 0.000000
3656 3654 3657 3610 3 0.627600 1.882800 0.000000 -2.510400 0.000000 0.000000
3613 3615 3616 3617 3 0.414 1.243 0.000 -1.657 -0.000 0.000
3613 3615 3616 3618 3 0.414 1.243 0.000 -1.657 -0.000 0.000
3613 3615 3616 3619 3 -2.197 5.201 0.527 -3.531 -0.000 0.000
3614 3613 3615 3616 3 21.439 0.000 -21.439 -0.000 -0.000 0.000
3615 3616 3619 3620 3 0.979 2.937 0.000 -3.916 -0.000 0.000
3615 3616 3619 3621 3 0.979 2.937 0.000 -3.916 -0.000 0.000
3615 3616 3619 3622 3 2.874 0.582 2.092 -5.548 -0.000 0.000
3616 3619 3622 3623 3 0.628 1.883 0.000 -2.510 -0.000 0.000
3616 3619 3622 3624 3 0.628 1.883 0.000 -2.510 -0.000 0.000
3616 3619 3622 3625 3 2.301 -1.464 0.837 -1.674 -0.000 0.000
3617 3616 3619 3620 3 0.628 1.883 0.000 -2.510 -0.000 0.000
3617 3616 3619 3621 3 0.628 1.883 0.000 -2.510 -0.000 0.000
3617 3616 3619 3622 3 0.628 1.883 0.000 -2.510 -0.000 0.000
3618 3616 3619 3620 3 0.628 1.883 0.000 -2.510 -0.000 0.000
3618 3616 3619 3621 3 0.628 1.883 0.000 -2.510 -0.000 0.000
3618 3616 3619 3622 3 0.628 1.883 0.000 -2.510 -0.000 0.000
3619 3622 3625 3626 3 0.628 1.883 0.000 -2.510 -0.000 0.000
3619 3622 3625 3627 3 0.628 1.883 0.000 -2.510 -0.000 0.000
3619 3622 3625 3628 3 2.301 -1.464 0.837 -1.674 -0.000 0.000
3620 3619 3622 3623 3 0.628 1.883 0.000 -2.510 -0.000 0.000
3620 3619 3622 3624 3 0.628 1.883 0.000 -2.510 -0.000 0.000
3620 3619 3622 3625 3 0.628 1.883 0.000 -2.510 -0.000 0.000
3621 3619 3622 3623 3 0.628 1.883 0.000 -2.510 -0.000 0.000
3621 3619 3622 3624 3 0.628 1.883 0.000 -2.510 -0.000 0.000
3621 3619 3622 3625 3 0.628 1.883 0.000 -2.510 -0.000 0.000
3622 3625 3628 3629 3 0.628 1.883 0.000 -2.510 -0.000 0.000
3622 3625 3628 3630 3 0.628 1.883 0.000 -2.510 -0.000 0.000
3622 3625 3628 3631 3 2.301 -1.464 0.837 -1.674 -0.000 0.000
3623 3622 3625 3626 3 0.628 1.883 0.000 -2.510 -0.000 0.000
3623 3622 3625 3627 3 0.628 1.883 0.000 -2.510 -0.000 0.000
3623 3622 3625 3628 3 0.628 1.883 0.000 -2.510 -0.000 0.000
3624 3622 3625 3626 3 0.628 1.883 0.000 -2.510 -0.000 0.000
3624 3622 3625 3627 3 0.628 1.883 0.000 -2.510 -0.000 0.000
3624 3622 3625 3628 3 0.628 1.883 0.000 -2.510 -0.000 0.000
3625 3628 3631 3632 3 0.628 1.883 0.000 -2.510 -0.000 0.000
3625 3628 3631 3633 3 0.628 1.883 0.000 -2.510 -0.000 0.000
3625 3628 3631 3634 3 2.301 -1.464 0.837 -1.674 -0.000 0.000
3626 3625 3628 3629 3 0.628 1.883 0.000 -2.510 -0.000 0.000
3626 3625 3628 3630 3 0.628 1.883 0.000 -2.510 -0.000 0.000
3626 3625 3628 3631 3 0.628 1.883 0.000 -2.510 -0.000 0.000
3627 3625 3628 3629 3 0.628 1.883 0.000 -2.510 -0.000 0.000
3627 3625 3628 3630 3 0.628 1.883 0.000 -2.510 -0.000 0.000
3627 3625 3628 3631 3 0.628 1.883 0.000 -2.510 -0.000 0.000
3628 3631 3634 3635 3 0.628 1.883 0.000 -2.510 -0.000 0.000
3628 3631 3634 3636 3 0.628 1.883 0.000 -2.510 -0.000 0.000
3628 3631 3634 3637 3 2.301 -1.464 0.837 -1.674 -0.000 0.000
3629 3628 3631 3632 3 0.628 1.883 0.000 -2.510 -0.000 0.000
3629 3628 3631 3633 3 0.628 1.883 0.000 -2.510 -0.000 0.000
3629 3628 3631 3634 3 0.628 1.883 0.000 -2.510 -0.000 0.000
3630 3628 3631 3632 3 0.628 1.883 0.000 -2.510 -0.000 0.000
3630 3628 3631 3633 3 0.628 1.883 0.000 -2.510 -0.000 0.000
3630 3628 3631 3634 3 0.628 1.883 0.000 -2.510 -0.000 0.000
3631 3634 3637 3638 3 0.628 1.883 0.000 -2.510 -0.000 0.000
3631 3634 3637 3639 3 0.628 1.883 0.000 -2.510 -0.000 0.000
3631 3634 3637 3640 3 2.301 -1.464 0.837 -1.674 -0.000 0.000
3632 3631 3634 3635 3 0.628 1.883 0.000 -2.510 -0.000 0.000
3632 3631 3634 3636 3 0.628 1.883 0.000 -2.510 -0.000 0.000
3632 3631 3634 3637 3 0.628 1.883 0.000 -2.510 -0.000 0.000
3633 3631 3634 3635 3 0.628 1.883 0.000 -2.510 -0.000 0.000
3633 3631 3634 3636 3 0.628 1.883 0.000 -2.510 -0.000 0.000
3633 3631 3634 3637 3 0.628 1.883 0.000 -2.510 -0.000 0.000
3634 3637 3640 3641 3 0.628 1.883 0.000 -2.510 -0.000 0.000
3634 3637 3640 3642 3 0.628 1.883 0.000 -2.510 -0.000 0.000
3634 3637 3640 3643 3 2.301 -1.464 0.837 -1.674 -0.000 0.000
3635 3634 3637 3638 3 0.628 1.883 0.000 -2.510 -0.000 0.000
3635 3634 3637 3639 3 0.628 1.883 0.000 -2.510 -0.000 0.000
3635 3634 3637 3640 3 0.628 1.883 0.000 -2.510 -0.000 0.000
3636 3634 3637 3638 3 0.628 1.883 0.000 -2.510 -0.000 0.000
3636 3634 3637 3639 3 0.628 1.883 0.000 -2.510 -0.000 0.000
3636 3634 3637 3640 3 0.628 1.883 0.000 -2.510 -0.000 0.000
3637 3640 3643 3644 3 0.628 1.883 0.000 -2.510 -0.000 0.000
3637 3640 3643 3645 3 0.628 1.883 0.000 -2.510 -0.000 0.000
3637 3640 3643 3646 3 2.301 -1.464 0.837 -1.674 -0.000 0.000
3638 3637 3640 3641 3 0.628 1.883 0.000 -2.510 -0.000 0.000
3638 3637 3640 3642 3 0.628 1.883 0.000 -2.510 -0.000 0.000
3638 3637 3640 3643 3 0.628 1.883 0.000 -2.510 -0.000 0.000
3639 3637 3640 3641 3 0.628 1.883 0.000 -2.510 -0.000 0.000
3639 3637 3640 3642 3 0.628 1.883 0.000 -2.510 -0.000 0.000
3639 3637 3640 3643 3 0.628 1.883 0.000 -2.510 -0.000 0.000
3640 3643 3646 3647 3 0.628 1.883 0.000 -2.510 -0.000 0.000
3640 3643 3646 3648 3 0.628 1.883 0.000 -2.510 -0.000 0.000
3640 3643 3646 3649 3 2.301 -1.464 0.837 -1.674 -0.000 0.000
3641 3640 3643 3644 3 0.628 1.883 0.000 -2.510 -0.000 0.000
3641 3640 3643 3645 3 0.628 1.883 0.000 -2.510 -0.000 0.000
3641 3640 3643 3646 3 0.628 1.883 0.000 -2.510 -0.000 0.000
3642 3640 3643 3644 3 0.628 1.883 0.000 -2.510 -0.000 0.000
3642 3640 3643 3645 3 0.628 1.883 0.000 -2.510 -0.000 0.000
3642 3640 3643 3646 3 0.628 1.883 0.000 -2.510 -0.000 0.000
3643 3646 3649 3650 3 0.628 1.883 0.000 -2.510 -0.000 0.000
3643 3646 3649 3651 3 0.628 1.883 0.000 -2.510 -0.000 0.000
3643 3646 3649 3652 3 0.628 1.883 0.000 -2.510 -0.000 0.000
3644 3643 3646 3647 3 0.628 1.883 0.000 -2.510 -0.000 0.000
3644 3643 3646 3648 3 0.628 1.883 0.000 -2.510 -0.000 0.000
3644 3643 3646 3649 3 0.628 1.883 0.000 -2.510 -0.000 0.000
3645 3643 3646 3647 3 0.628 1.883 0.000 -2.510 -0.000 0.000
3645 3643 3646 3648 3 0.628 1.883 0.000 -2.510 -0.000 0.000
3645 3643 3646 3649 3 0.628 1.883 0.000 -2.510 -0.000 0.000
3647 3646 3649 3650 3 0.628 1.883 0.000 -2.510 -0.000 0.000
3647 3646 3649 3651 3 0.628 1.883 0.000 -2.510 -0.000 0.000
3647 3646 3649 3652 3 0.628 1.883 0.000 -2.510 -0.000 0.000
3648 3646 3649 3650 3 0.628 1.883 0.000 -2.510 -0.000 0.000
3648 3646 3649 3651 3 0.628 1.883 0.000 -2.510 -0.000 0.000
3648 3646 3649 3652 3 0.628 1.883 0.000 -2.510 -0.000 0.000
3653 3654 3657 3658 3 -0.778 -2.335 0.000 3.113 -0.000 0.000
3653 3654 3657 3661 3 -0.778 -2.335 0.000 3.113 -0.000 0.000
3654 3657 3658 3659 3 58.576 0.000 -58.576 -0.000 -0.000 0.000
3654 3657 3658 3660 3 58.576 0.000 -58.576 -0.000 -0.000 0.000
3654 3657 3658 3723 3 2.928800 -1.464400 0.209200 -1.673600 0.000000 0.000000
3654 3657 3661 3662 3 1.789 -5.052 -0.962 4.226 -0.000 0.000
3654 3657 3661 3663 3 1.789 -5.052 -0.962 4.226 -0.000 0.000
3655 3654 3657 3658 3 -0.778 -2.335 0.000 3.113 -0.000 0.000
3655 3654 3657 3661 3 -0.778 -2.335 0.000 3.113 -0.000 0.000
3656 3654 3657 3658 3 -0.778 -2.335 0.000 3.113 -0.000 0.000
3656 3654 3657 3661 3 -0.778 -2.335 0.000 3.113 -0.000 0.000
3658 3654 3657 3661 4 180.000 10.460 2
3657 3658 3723 3720 3 2.928800 -1.464400 0.209200 -1.673600 0.000000 0.000000
3657 3658 3723 3724 3 2.928800 -1.464400 0.209200 -1.673600 0.000000 0.000000
3657 3658 3723 3727 3 2.928800 -1.464400 0.209200 -1.673600 0.000000 0.000000
3657 3661 3663 3664 3 31.206 -9.768 -21.439 -0.000 -0.000 0.000
3658 3657 3661 3662 3 30.334 -5.230 -25.104 -0.000 -0.000 0.000
3658 3657 3661 3663 3 -5.858 -6.694 12.552 -0.000 -0.000 0.000
3659 3657 3658 3660 4 180.000 10.460 2
3661 3657 3658 3659 3 58.576 0.000 -58.576 -0.000 -0.000 0.000
3661 3657 3658 3660 3 58.576 0.000 -58.576 -0.000 -0.000 0.000
3661 3657 3658 3723 3 2.928800 -1.464400 0.209200 -1.673600 0.000000 0.000000
3662 3657 3661 3663 4 180.000 43.932 2
3658 3723 3724 3725 3 0.627600 1.882800 0.000000 -2.510400 0.000000 0.000000
3658 3723 3724 3726 3 0.627600 1.882800 0.000000 -2.510400 0.000000 0.000000
3658 3723 3724 3759 3 2.928800 -1.464400 0.209200 -1.673600 0.000000 0.000000
3658 3723 3727 3728 3 2.874410 0.581580 2.092000 -5.547990 0.000000 0.000000
3658 3723 3727 3729 3 2.874410 0.581580 2.092000 -5.547990 0.000000 0.000000
3659 3658 3723 3720 3 0.627600 1.882800 0.000000 -2.510400 0.000000 0.000000
3659 3658 3723 3724 3 0.627600 1.882800 0.000000 -2.510400 0.000000 0.000000
3659 3658 3723 3727 3 0.627600 1.882800 0.000000 -2.510400 0.000000 0.000000
3660 3658 3723 3720 3 0.627600 1.882800 0.000000 -2.510400 0.000000 0.000000
3660 3658 3723 3724 3 0.627600 1.882800 0.000000 -2.510400 0.000000 0.000000
3660 3658 3723 3727 3 0.627600 1.882800 0.000000 -2.510400 0.000000 0.000000
3719 3720 3723 3658 3 0.627600 1.882800 0.000000 -2.510400 0.000000 0.000000
3721 3720 3723 3658 3 0.627600 1.882800 0.000000 -2.510400 0.000000 0.000000
3722 3720 3723 3658 3 0.627600 1.882800 0.000000 -2.510400 0.000000 0.000000
3661 3663 3664 3665 3 0.414 1.243 0.000 -1.657 -0.000 0.000
3661 3663 3664 3666 3 0.414 1.243 0.000 -1.657 -0.000 0.000
3661 3663 3664 3667 3 -2.197 5.201 0.527 -3.531 -0.000 0.000
3662 3661 3663 3664 3 21.439 0.000 -21.439 -0.000 -0.000 0.000
3663 3664 3667 3668 3 0.979 2.937 0.000 -3.916 -0.000 0.000
3663 3664 3667 3669 3 0.979 2.937 0.000 -3.916 -0.000 0.000
3663 3664 3667 3670 3 2.874 0.582 2.092 -5.548 -0.000 0.000
3664 3667 3670 3671 3 0.628 1.883 0.000 -2.510 -0.000 0.000
3664 3667 3670 3672 3 0.628 1.883 0.000 -2.510 -0.000 0.000
3664 3667 3670 3673 3 2.301 -1.464 0.837 -1.674 -0.000 0.000
3665 3664 3667 3668 3 0.628 1.883 0.000 -2.510 -0.000 0.000
3665 3664 3667 3669 3 0.628 1.883 0.000 -2.510 -0.000 0.000
3665 3664 3667 3670 3 0.628 1.883 0.000 -2.510 -0.000 0.000
3666 3664 3667 3668 3 0.628 1.883 0.000 -2.510 -0.000 0.000
3666 3664 3667 3669 3 0.628 1.883 0.000 -2.510 -0.000 0.000
3666 3664 3667 3670 3 0.628 1.883 0.000 -2.510 -0.000 0.000
3667 3670 3673 3674 3 0.628 1.883 0.000 -2.510 -0.000 0.000
3667 3670 3673 3675 3 0.628 1.883 0.000 -2.510 -0.000 0.000
3667 3670 3673 3676 3 2.301 -1.464 0.837 -1.674 -0.000 0.000
3668 3667 3670 3671 3 0.628 1.883 0.000 -2.510 -0.000 0.000
3668 3667 3670 3672 3 0.628 1.883 0.000 -2.510 -0.000 0.000
3668 3667 3670 3673 3 0.628 1.883 0.000 -2.510 -0.000 0.000
3669 3667 3670 3671 3 0.628 1.883 0.000 -2.510 -0.000 0.000
3669 3667 3670 3672 3 0.628 1.883 0.000 -2.510 -0.000 0.000
3669 3667 3670 3673 3 0.628 1.883 0.000 -2.510 -0.000 0.000
3670 3673 3676 3677 3 0.628 1.883 0.000 -2.510 -0.000 0.000
3670 3673 3676 3678 3 0.628 1.883 0.000 -2.510 -0.000 0.000
3670 3673 3676 3679 3 2.301 -1.464 0.837 -1.674 -0.000 0.000
3671 3670 3673 3674 3 0.628 1.883 0.000 -2.510 -0.000 0.000
3671 3670 3673 3675 3 0.628 1.883 0.000 -2.510 -0.000 0.000
3671 3670 3673 3676 3 0.628 1.883 0.000 -2.510 -0.000 0.000
3672 3670 3673 3674 3 0.628 1.883 0.000 -2.510 -0.000 0.000
3672 3670 3673 3675 3 0.628 1.883 0.000 -2.510 -0.000 0.000
3672 3670 3673 3676 3 0.628 1.883 0.000 -2.510 -0.000 0.000
3673 3676 3679 3680 3 0.628 1.883 0.000 -2.510 -0.000 0.000
3673 3676 3679 3681 3 0.628 1.883 0.000 -2.510 -0.000 0.000
3673 3676 3679 3682 3 2.301 -1.464 0.837 -1.674 -0.000 0.000
3674 3673 3676 3677 3 0.628 1.883 0.000 -2.510 -0.000 0.000
3674 3673 3676 3678 3 0.628 1.883 0.000 -2.510 -0.000 0.000
3674 3673 3676 3679 3 0.628 1.883 0.000 -2.510 -0.000 0.000
3675 3673 3676 3677 3 0.628 1.883 0.000 -2.510 -0.000 0.000
3675 3673 3676 3678 3 0.628 1.883 0.000 -2.510 -0.000 0.000
3675 3673 3676 3679 3 0.628 1.883 0.000 -2.510 -0.000 0.000
3676 3679 3682 3683 3 0.628 1.883 0.000 -2.510 -0.000 0.000
3676 3679 3682 3684 3 0.628 1.883 0.000 -2.510 -0.000 0.000
3676 3679 3682 3685 3 2.301 -1.464 0.837 -1.674 -0.000 0.000
3677 3676 3679 3680 3 0.628 1.883 0.000 -2.510 -0.000 0.000
3677 3676 3679 3681 3 0.628 1.883 0.000 -2.510 -0.000 0.000
3677 3676 3679 3682 3 0.628 1.883 0.000 -2.510 -0.000 0.000
3678 3676 3679 3680 3 0.628 1.883 0.000 -2.510 -0.000 0.000
3678 3676 3679 3681 3 0.628 1.883 0.000 -2.510 -0.000 0.000
3678 3676 3679 3682 3 0.628 1.883 0.000 -2.510 -0.000 0.000
3679 3682 3685 3686 3 0.628 1.883 0.000 -2.510 -0.000 0.000
3679 3682 3685 3687 3 0.628 1.883 0.000 -2.510 -0.000 0.000
3679 3682 3685 3688 3 2.301 -1.464 0.837 -1.674 -0.000 0.000
3680 3679 3682 3683 3 0.628 1.883 0.000 -2.510 -0.000 0.000
3680 3679 3682 3684 3 0.628 1.883 0.000 -2.510 -0.000 0.000
3680 3679 3682 3685 3 0.628 1.883 0.000 -2.510 -0.000 0.000
3681 3679 3682 3683 3 0.628 1.883 0.000 -2.510 -0.000 0.000
3681 3679 3682 3684 3 0.628 1.883 0.000 -2.510 -0.000 0.000
3681 3679 3682 3685 3 0.628 1.883 0.000 -2.510 -0.000 0.000
3682 3685 3688 3689 3 0.628 1.883 0.000 -2.510 -0.000 0.000
3682 3685 3688 3690 3 0.628 1.883 0.000 -2.510 -0.000 0.000
3682 3685 3688 3691 3 2.301 -1.464 0.837 -1.674 -0.000 0.000
3683 3682 3685 3686 3 0.628 1.883 0.000 -2.510 -0.000 0.000
3683 3682 3685 3687 3 0.628 1.883 0.000 -2.510 -0.000 0.000
3683 3682 3685 3688 3 0.628 1.883 0.000 -2.510 -0.000 0.000
3684 3682 3685 3686 3 0.628 1.883 0.000 -2.510 -0.000 0.000
3684 3682 3685 3687 3 0.628 1.883 0.000 -2.510 -0.000 0.000
3684 3682 3685 3688 3 0.628 1.883 0.000 -2.510 -0.000 0.000
3685 3688 3691 3692 3 0.628 1.883 0.000 -2.510 -0.000 0.000
3685 3688 3691 3693 3 0.628 1.883 0.000 -2.510 -0.000 0.000
3685 3688 3691 3694 3 2.301 -1.464 0.837 -1.674 -0.000 0.000
3686 3685 3688 3689 3 0.628 1.883 0.000 -2.510 -0.000 0.000
3686 3685 3688 3690 3 0.628 1.883 0.000 -2.510 -0.000 0.000
3686 3685 3688 3691 3 0.628 1.883 0.000 -2.510 -0.000 0.000
3687 3685 3688 3689 3 0.628 1.883 0.000 -2.510 -0.000 0.000
3687 3685 3688 3690 3 0.628 1.883 0.000 -2.510 -0.000 0.000
3687 3685 3688 3691 3 0.628 1.883 0.000 -2.510 -0.000 0.000
3688 3691 3694 3695 3 0.628 1.883 0.000 -2.510 -0.000 0.000
3688 3691 3694 3696 3 0.628 1.883 0.000 -2.510 -0.000 0.000
3688 3691 3694 3697 3 2.301 -1.464 0.837 -1.674 -0.000 0.000
3689 3688 3691 3692 3 0.628 1.883 0.000 -2.510 -0.000 0.000
3689 3688 3691 3693 3 0.628 1.883 0.000 -2.510 -0.000 0.000
3689 3688 3691 3694 3 0.628 1.883 0.000 -2.510 -0.000 0.000
3690 3688 3691 3692 3 0.628 1.883 0.000 -2.510 -0.000 0.000
3690 3688 3691 3693 3 0.628 1.883 0.000 -2.510 -0.000 0.000
3690 3688 3691 3694 3 0.628 1.883 0.000 -2.510 -0.000 0.000
3691 3694 3697 3698 3 0.628 1.883 0.000 -2.510 -0.000 0.000
3691 3694 3697 3699 3 0.628 1.883 0.000 -2.510 -0.000 0.000
3691 3694 3697 3700 3 2.301 -1.464 0.837 -1.674 -0.000 0.000
3692 3691 3694 3695 3 0.628 1.883 0.000 -2.510 -0.000 0.000
3692 3691 3694 3696 3 0.628 1.883 0.000 -2.510 -0.000 0.000
3692 3691 3694 3697 3 0.628 1.883 0.000 -2.510 -0.000 0.000
3693 3691 3694 3695 3 0.628 1.883 0.000 -2.510 -0.000 0.000
3693 3691 3694 3696 3 0.628 1.883 0.000 -2.510 -0.000 0.000
3693 3691 3694 3697 3 0.628 1.883 0.000 -2.510 -0.000 0.000
3694 3697 3700 3701 3 0.628 1.883 0.000 -2.510 -0.000 0.000
3694 3697 3700 3702 3 0.628 1.883 0.000 -2.510 -0.000 0.000
3694 3697 3700 3703 3 2.301 -1.464 0.837 -1.674 -0.000 0.000
3695 3694 3697 3698 3 0.628 1.883 0.000 -2.510 -0.000 0.000
3695 3694 3697 3699 3 0.628 1.883 0.000 -2.510 -0.000 0.000
3695 3694 3697 3700 3 0.628 1.883 0.000 -2.510 -0.000 0.000
3696 3694 3697 3698 3 0.628 1.883 0.000 -2.510 -0.000 0.000
3696 3694 3697 3699 3 0.628 1.883 0.000 -2.510 -0.000 0.000
3696 3694 3697 3700 3 0.628 1.883 0.000 -2.510 -0.000 0.000
3697 3700 3703 3704 3 0.628 1.883 0.000 -2.510 -0.000 0.000
3697 3700 3703 3705 3 0.628 1.883 0.000 -2.510 -0.000 0.000
3697 3700 3703 3706 3 2.301 -1.464 0.837 -1.674 -0.000 0.000
3698 3697 3700 3701 3 0.628 1.883 0.000 -2.510 -0.000 0.000
3698 3697 3700 3702 3 0.628 1.883 0.000 -2.510 -0.000 0.000
3698 3697 3700 3703 3 0.628 1.883 0.000 -2.510 -0.000 0.000
3699 3697 3700 3701 3 0.628 1.883 0.000 -2.510 -0.000 0.000
3699 3697 3700 3702 3 0.628 1.883 0.000 -2.510 -0.000 0.000
3699 3697 3700 3703 3 0.628 1.883 0.000 -2.510 -0.000 0.000
3700 3703 3706 3707 3 0.628 1.883 0.000 -2.510 -0.000 0.000
3700 3703 3706 3708 3 0.628 1.883 0.000 -2.510 -0.000 0.000
3700 3703 3706 3709 3 2.301 -1.464 0.837 -1.674 -0.000 0.000
3701 3700 3703 3704 3 0.628 1.883 0.000 -2.510 -0.000 0.000
3701 3700 3703 3705 3 0.628 1.883 0.000 -2.510 -0.000 0.000
3701 3700 3703 3706 3 0.628 1.883 0.000 -2.510 -0.000 0.000
3702 3700 3703 3704 3 0.628 1.883 0.000 -2.510 -0.000 0.000
3702 3700 3703 3705 3 0.628 1.883 0.000 -2.510 -0.000 0.000
3702 3700 3703 3706 3 0.628 1.883 0.000 -2.510 -0.000 0.000
3703 3706 3709 3710 3 0.628 1.883 0.000 -2.510 -0.000 0.000
3703 3706 3709 3711 3 0.628 1.883 0.000 -2.510 -0.000 0.000
3703 3706 3709 3712 3 2.301 -1.464 0.837 -1.674 -0.000 0.000
3704 3703 3706 3707 3 0.628 1.883 0.000 -2.510 -0.000 0.000
3704 3703 3706 3708 3 0.628 1.883 0.000 -2.510 -0.000 0.000
3704 3703 3706 3709 3 0.628 1.883 0.000 -2.510 -0.000 0.000
3705 3703 3706 3707 3 0.628 1.883 0.000 -2.510 -0.000 0.000
3705 3703 3706 3708 3 0.628 1.883 0.000 -2.510 -0.000 0.000
3705 3703 3706 3709 3 0.628 1.883 0.000 -2.510 -0.000 0.000
3706 3709 3712 3713 3 0.628 1.883 0.000 -2.510 -0.000 0.000
3706 3709 3712 3714 3 0.628 1.883 0.000 -2.510 -0.000 0.000
3706 3709 3712 3715 3 2.301 -1.464 0.837 -1.674 -0.000 0.000
3707 3706 3709 3710 3 0.628 1.883 0.000 -2.510 -0.000 0.000
3707 3706 3709 3711 3 0.628 1.883 0.000 -2.510 -0.000 0.000
3707 3706 3709 3712 3 0.628 1.883 0.000 -2.510 -0.000 0.000
3708 3706 3709 3710 3 0.628 1.883 0.000 -2.510 -0.000 0.000
3708 3706 3709 3711 3 0.628 1.883 0.000 -2.510 -0.000 0.000
3708 3706 3709 3712 3 0.628 1.883 0.000 -2.510 -0.000 0.000
3709 3712 3715 3716 3 0.628 1.883 0.000 -2.510 -0.000 0.000
3709 3712 3715 3717 3 0.628 1.883 0.000 -2.510 -0.000 0.000
3709 3712 3715 3718 3 0.628 1.883 0.000 -2.510 -0.000 0.000
3710 3709 3712 3713 3 0.628 1.883 0.000 -2.510 -0.000 0.000
3710 3709 3712 3714 3 0.628 1.883 0.000 -2.510 -0.000 0.000
3710 3709 3712 3715 3 0.628 1.883 0.000 -2.510 -0.000 0.000
3711 3709 3712 3713 3 0.628 1.883 0.000 -2.510 -0.000 0.000
3711 3709 3712 3714 3 0.628 1.883 0.000 -2.510 -0.000 0.000
3711 3709 3712 3715 3 0.628 1.883 0.000 -2.510 -0.000 0.000
3713 3712 3715 3716 3 0.628 1.883 0.000 -2.510 -0.000 0.000
3713 3712 3715 3717 3 0.628 1.883 0.000 -2.510 -0.000 0.000
3713 3712 3715 3718 3 0.628 1.883 0.000 -2.510 -0.000 0.000
3714 3712 3715 3716 3 0.628 1.883 0.000 -2.510 -0.000 0.000
3714 3712 3715 3717 3 0.628 1.883 0.000 -2.510 -0.000 0.000
3714 3712 3715 3718 3 0.628 1.883 0.000 -2.510 -0.000 0.000
3719 3720 3723 3724 3 -0.778 -2.335 0.000 3.113 -0.000 0.000
3719 3720 3723 3727 3 -0.778 -2.335 0.000 3.113 -0.000 0.000
3720 3723 3724 3725 3 58.576 0.000 -58.576 -0.000 -0.000 0.000
3720 3723 3724 3726 3 58.576 0.000 -58.576 -0.000 -0.000 0.000
3720 3723 3724 3759 3 2.928800 -1.464400 0.209200 -1.673600 0.000000 0.000000
3720 3723 3727 3728 3 1.789 -5.052 -0.962 4.226 -0.000 0.000
3720 3723 3727 3729 3 1.789 -5.052 -0.962 4.226 -0.000 0.000
3721 3720 3723 3724 3 -0.778 -2.335 0.000 3.113 -0.000 0.000
3721 3720 3723 3727 3 -0.778 -2.335 0.000 3.113 -0.000 0.000
3722 3720 3723 3724 3 -0.778 -2.335 0.000 3.113 -0.000 0.000
3722 3720 3723 3727 3 -0.778 -2.335 0.000 3.113 -0.000 0.000
3724 3720 3723 3727 4 180.000 10.460 2
3723 3724 3759 3756 3 2.928800 -1.464400 0.209200 -1.673600 0.000000 0.000000
3723 3724 3759 3760 3 2.928800 -1.464400 0.209200 -1.673600 0.000000 0.000000
3723 3724 3759 3763 3 2.928800 -1.464400 0.209200 -1.673600 0.000000 0.000000
3723 3727 3729 3730 3 31.206 -9.768 -21.439 -0.000 -0.000 0.000
3724 3723 3727 3728 3 30.334 -5.230 -25.104 -0.000 -0.000 0.000
3724 3723 3727 3729 3 -5.858 -6.694 12.552 -0.000 -0.000 0.000
3725 3723 3724 3726 4 180.000 10.460 2
3727 3723 3724 3725 3 58.576 0.000 -58.576 -0.000 -0.000 0.000
3727 3723 3724 3726 3 58.576 0.000 -58.576 -0.000 -0.000 0.000
3727 3723 3724 3759 3 2.928800 -1.464400 0.209200 -1.673600 0.000000 0.000000
3728 3723 3727 3729 4 180.000 43.932 2
3724 3759 3760 3761 3 0.627600 1.882800 0.000000 -2.510400 0.000000 0.000000
3724 3759 3760 3762 3 0.627600 1.882800 0.000000 -2.510400 0.000000 0.000000
3724 3759 3760 3795 3 2.928800 -1.464400 0.209200 -1.673600 0.000000 0.000000
3724 3759 3763 3764 3 2.874410 0.581580 2.092000 -5.547990 0.000000 0.000000
3724 3759 3763 3765 3 2.874410 0.581580 2.092000 -5.547990 0.000000 0.000000
3725 3724 3759 3756 3 0.627600 1.882800 0.000000 -2.510400 0.000000 0.000000
3725 3724 3759 3760 3 0.627600 1.882800 0.000000 -2.510400 0.000000 0.000000
3725 3724 3759 3763 3 0.627600 1.882800 0.000000 -2.510400 0.000000 0.000000
3726 3724 3759 3756 3 0.627600 1.882800 0.000000 -2.510400 0.000000 0.000000
3726 3724 3759 3760 3 0.627600 1.882800 0.000000 -2.510400 0.000000 0.000000
3726 3724 3759 3763 3 0.627600 1.882800 0.000000 -2.510400 0.000000 0.000000
3755 3756 3759 3724 3 0.627600 1.882800 0.000000 -2.510400 0.000000 0.000000
3757 3756 3759 3724 3 0.627600 1.882800 0.000000 -2.510400 0.000000 0.000000
3758 3756 3759 3724 3 0.627600 1.882800 0.000000 -2.510400 0.000000 0.000000
3727 3729 3730 3731 3 0.414 1.243 0.000 -1.657 -0.000 0.000
3727 3729 3730 3732 3 0.414 1.243 0.000 -1.657 -0.000 0.000
3727 3729 3730 3733 3 -2.197 5.201 0.527 -3.531 -0.000 0.000
3728 3727 3729 3730 3 21.439 0.000 -21.439 -0.000 -0.000 0.000
3729 3730 3733 3734 3 0.979 2.937 0.000 -3.916 -0.000 0.000
3729 3730 3733 3735 3 2.874 0.582 2.092 -5.548 -0.000 0.000
3729 3730 3733 3742 3 2.874 0.582 2.092 -5.548 -0.000 0.000
3730 3733 3735 3736 3 0.628 1.883 0.000 -2.510 -0.000 0.000
3730 3733 3735 3737 3 0.628 1.883 0.000 -2.510 -0.000 0.000
3730 3733 3735 3738 3 2.301 -1.464 0.837 -1.674 -0.000 0.000
3730 3733 3742 3743 3 0.628 1.883 0.000 -2.510 -0.000 0.000
3730 3733 3742 3744 3 0.628 1.883 0.000 -2.510 -0.000 0.000
3730 3733 3742 3745 3 2.301 -1.464 0.837 -1.674 -0.000 0.000
3731 3730 3733 3734 3 0.628 1.883 0.000 -2.510 -0.000 0.000
3731 3730 3733 3735 3 0.628 1.883 0.000 -2.510 -0.000 0.000
3731 3730 3733 3742 3 0.628 1.883 0.000 -2.510 -0.000 0.000
3732 3730 3733 3734 3 0.628 1.883 0.000 -2.510 -0.000 0.000
3732 3730 3733 3735 3 0.628 1.883 0.000 -2.510 -0.000 0.000
3732 3730 3733 3742 3 0.628 1.883 0.000 -2.510 -0.000 0.000
3733 3735 3738 3739 3 0.628 1.883 0.000 -2.510 -0.000 0.000
3733 3735 3738 3740 3 0.628 1.883 0.000 -2.510 -0.000 0.000
3733 3735 3738 3741 3 0.628 1.883 0.000 -2.510 -0.000 0.000
3733 3742 3745 3746 3 0.628 1.883 0.000 -2.510 -0.000 0.000
3733 3742 3745 3747 3 0.628 1.883 0.000 -2.510 -0.000 0.000
3733 3742 3745 3748 3 2.301 -1.464 0.837 -1.674 -0.000 0.000
3734 3733 3735 3736 3 0.628 1.883 0.000 -2.510 -0.000 0.000
3734 3733 3735 3737 3 0.628 1.883 0.000 -2.510 -0.000 0.000
3734 3733 3735 3738 3 0.628 1.883 0.000 -2.510 -0.000 0.000
3734 3733 3742 3743 3 0.628 1.883 0.000 -2.510 -0.000 0.000
3734 3733 3742 3744 3 0.628 1.883 0.000 -2.510 -0.000 0.000
3734 3733 3742 3745 3 0.628 1.883 0.000 -2.510 -0.000 0.000
3735 3733 3742 3743 3 0.628 1.883 0.000 -2.510 -0.000 0.000
3735 3733 3742 3744 3 0.628 1.883 0.000 -2.510 -0.000 0.000
3735 3733 3742 3745 3 2.301 -1.464 0.837 -1.674 -0.000 0.000
3742 3733 3735 3736 3 0.628 1.883 0.000 -2.510 -0.000 0.000
3742 3733 3735 3737 3 0.628 1.883 0.000 -2.510 -0.000 0.000
3742 3733 3735 3738 3 2.301 -1.464 0.837 -1.674 -0.000 0.000
3736 3735 3738 3739 3 0.628 1.883 0.000 -2.510 -0.000 0.000
3736 3735 3738 3740 3 0.628 1.883 0.000 -2.510 -0.000 0.000
3736 3735 3738 3741 3 0.628 1.883 0.000 -2.510 -0.000 0.000
3737 3735 3738 3739 3 0.628 1.883 0.000 -2.510 -0.000 0.000
3737 3735 3738 3740 3 0.628 1.883 0.000 -2.510 -0.000 0.000
3737 3735 3738 3741 3 0.628 1.883 0.000 -2.510 -0.000 0.000
3742 3745 3748 3749 3 0.628 1.883 0.000 -2.510 -0.000 0.000
3742 3745 3748 3750 3 0.628 1.883 0.000 -2.510 -0.000 0.000
3742 3745 3748 3751 3 2.301 -1.464 0.837 -1.674 -0.000 0.000
3743 3742 3745 3746 3 0.628 1.883 0.000 -2.510 -0.000 0.000
3743 3742 3745 3747 3 0.628 1.883 0.000 -2.510 -0.000 0.000
3743 3742 3745 3748 3 0.628 1.883 0.000 -2.510 -0.000 0.000
3744 3742 3745 3746 3 0.628 1.883 0.000 -2.510 -0.000 0.000
3744 3742 3745 3747 3 0.628 1.883 0.000 -2.510 -0.000 0.000
3744 3742 3745 3748 3 0.628 1.883 0.000 -2.510 -0.000 0.000
3745 3748 3751 3752 3 0.628 1.883 0.000 -2.510 -0.000 0.000
3745 3748 3751 3753 3 0.628 1.883 0.000 -2.510 -0.000 0.000
3745 3748 3751 3754 3 0.628 1.883 0.000 -2.510 -0.000 0.000
3746 3745 3748 3749 3 0.628 1.883 0.000 -2.510 -0.000 0.000
3746 3745 3748 3750 3 0.628 1.883 0.000 -2.510 -0.000 0.000
3746 3745 3748 3751 3 0.628 1.883 0.000 -2.510 -0.000 0.000
3747 3745 3748 3749 3 0.628 1.883 0.000 -2.510 -0.000 0.000
3747 3745 3748 3750 3 0.628 1.883 0.000 -2.510 -0.000 0.000
3747 3745 3748 3751 3 0.628 1.883 0.000 -2.510 -0.000 0.000
3749 3748 3751 3752 3 0.628 1.883 0.000 -2.510 -0.000 0.000
3749 3748 3751 3753 3 0.628 1.883 0.000 -2.510 -0.000 0.000
3749 3748 3751 3754 3 0.628 1.883 0.000 -2.510 -0.000 0.000
3750 3748 3751 3752 3 0.628 1.883 0.000 -2.510 -0.000 0.000
3750 3748 3751 3753 3 0.628 1.883 0.000 -2.510 -0.000 0.000
3750 3748 3751 3754 3 0.628 1.883 0.000 -2.510 -0.000 0.000
3755 3756 3759 3760 3 -0.778 -2.335 0.000 3.113 -0.000 0.000
3755 3756 3759 3763 3 -0.778 -2.335 0.000 3.113 -0.000 0.000
3756 3759 3760 3761 3 58.576 0.000 -58.576 -0.000 -0.000 0.000
3756 3759 3760 3762 3 58.576 0.000 -58.576 -0.000 -0.000 0.000
3756 3759 3760 3795 3 2.928800 -1.464400 0.209200 -1.673600 0.000000 0.000000
3756 3759 3763 3764 3 1.789 -5.052 -0.962 4.226 -0.000 0.000
3756 3759 3763 3765 3 1.789 -5.052 -0.962 4.226 -0.000 0.000
3757 3756 3759 3760 3 -0.778 -2.335 0.000 3.113 -0.000 0.000
3757 3756 3759 3763 3 -0.778 -2.335 0.000 3.113 -0.000 0.000
3758 3756 3759 3760 3 -0.778 -2.335 0.000 3.113 -0.000 0.000
3758 3756 3759 3763 3 -0.778 -2.335 0.000 3.113 -0.000 0.000
3760 3756 3759 3763 4 180.000 10.460 2
3759 3760 3795 3792 3 2.928800 -1.464400 0.209200 -1.673600 0.000000 0.000000
3759 3760 3795 3796 3 2.928800 -1.464400 0.209200 -1.673600 0.000000 0.000000
3759 3760 3795 3799 3 2.928800 -1.464400 0.209200 -1.673600 0.000000 0.000000
3759 3763 3765 3766 3 31.206 -9.768 -21.439 -0.000 -0.000 0.000
3760 3759 3763 3764 3 30.334 -5.230 -25.104 -0.000 -0.000 0.000
3760 3759 3763 3765 3 -5.858 -6.694 12.552 -0.000 -0.000 0.000
3761 3759 3760 3762 4 180.000 10.460 2
3763 3759 3760 3761 3 58.576 0.000 -58.576 -0.000 -0.000 0.000
3763 3759 3760 3762 3 58.576 0.000 -58.576 -0.000 -0.000 0.000
3763 3759 3760 3795 3 2.928800 -1.464400 0.209200 -1.673600 0.000000 0.000000
3764 3759 3763 3765 4 180.000 43.932 2
3760 3795 3796 3797 3 0.627600 1.882800 0.000000 -2.510400 0.000000 0.000000
3760 3795 3796 3798 3 0.627600 1.882800 0.000000 -2.510400 0.000000 0.000000
3760 3795 3796 3843 3 2.928800 -1.464400 0.209200 -1.673600 0.000000 0.000000
3760 3795 3799 3800 3 2.874410 0.581580 2.092000 -5.547990 0.000000 0.000000
3760 3795 3799 3801 3 2.874410 0.581580 2.092000 -5.547990 0.000000 0.000000
3761 3760 3795 3792 3 0.627600 1.882800 0.000000 -2.510400 0.000000 0.000000
3761 3760 3795 3796 3 0.627600 1.882800 0.000000 -2.510400 0.000000 0.000000
3761 3760 3795 3799 3 0.627600 1.882800 0.000000 -2.510400 0.000000 0.000000
3762 3760 3795 3792 3 0.627600 1.882800 0.000000 -2.510400 0.000000 0.000000
3762 3760 3795 3796 3 0.627600 1.882800 0.000000 -2.510400 0.000000 0.000000
3762 3760 3795 3799 3 0.627600 1.882800 0.000000 -2.510400 0.000000 0.000000
3791 3792 3795 3760 3 0.627600 1.882800 0.000000 -2.510400 0.000000 0.000000
3793 3792 3795 3760 3 0.627600 1.882800 0.000000 -2.510400 0.000000 0.000000
3794 3792 3795 3760 3 0.627600 1.882800 0.000000 -2.510400 0.000000 0.000000
3763 3765 3766 3767 3 0.414 1.243 0.000 -1.657 -0.000 0.000
3763 3765 3766 3768 3 0.414 1.243 0.000 -1.657 -0.000 0.000
3763 3765 3766 3769 3 -2.197 5.201 0.527 -3.531 -0.000 0.000
3764 3763 3765 3766 3 21.439 0.000 -21.439 -0.000 -0.000 0.000
3765 3766 3769 3770 3 0.979 2.937 0.000 -3.916 -0.000 0.000
3765 3766 3769 3771 3 2.874 0.582 2.092 -5.548 -0.000 0.000
3765 3766 3769 3778 3 2.874 0.582 2.092 -5.548 -0.000 0.000
3766 3769 3771 3772 3 0.628 1.883 0.000 -2.510 -0.000 0.000
3766 3769 3771 3773 3 0.628 1.883 0.000 -2.510 -0.000 0.000
3766 3769 3771 3774 3 2.301 -1.464 0.837 -1.674 -0.000 0.000
3766 3769 3778 3779 3 0.628 1.883 0.000 -2.510 -0.000 0.000
3766 3769 3778 3780 3 0.628 1.883 0.000 -2.510 -0.000 0.000
3766 3769 3778 3781 3 2.301 -1.464 0.837 -1.674 -0.000 0.000
3767 3766 3769 3770 3 0.628 1.883 0.000 -2.510 -0.000 0.000
3767 3766 3769 3771 3 0.628 1.883 0.000 -2.510 -0.000 0.000
3767 3766 3769 3778 3 0.628 1.883 0.000 -2.510 -0.000 0.000
3768 3766 3769 3770 3 0.628 1.883 0.000 -2.510 -0.000 0.000
3768 3766 3769 3771 3 0.628 1.883 0.000 -2.510 -0.000 0.000
3768 3766 3769 3778 3 0.628 1.883 0.000 -2.510 -0.000 0.000
3769 3771 3774 3775 3 0.628 1.883 0.000 -2.510 -0.000 0.000
3769 3771 3774 3776 3 0.628 1.883 0.000 -2.510 -0.000 0.000
3769 3771 3774 3777 3 0.628 1.883 0.000 -2.510 -0.000 0.000
3769 3778 3781 3782 3 0.628 1.883 0.000 -2.510 -0.000 0.000
3769 3778 3781 3783 3 0.628 1.883 0.000 -2.510 -0.000 0.000
3769 3778 3781 3784 3 2.301 -1.464 0.837 -1.674 -0.000 0.000
3770 3769 3771 3772 3 0.628 1.883 0.000 -2.510 -0.000 0.000
3770 3769 3771 3773 3 0.628 1.883 0.000 -2.510 -0.000 0.000
3770 3769 3771 3774 3 0.628 1.883 0.000 -2.510 -0.000 0.000
3770 3769 3778 3779 3 0.628 1.883 0.000 -2.510 -0.000 0.000
3770 3769 3778 3780 3 0.628 1.883 0.000 -2.510 -0.000 0.000
3770 3769 3778 3781 3 0.628 1.883 0.000 -2.510 -0.000 0.000
3771 3769 3778 3779 3 0.628 1.883 0.000 -2.510 -0.000 0.000
3771 3769 3778 3780 3 0.628 1.883 0.000 -2.510 -0.000 0.000
3771 3769 3778 3781 3 2.301 -1.464 0.837 -1.674 -0.000 0.000
3778 3769 3771 3772 3 0.628 1.883 0.000 -2.510 -0.000 0.000
3778 3769 3771 3773 3 0.628 1.883 0.000 -2.510 -0.000 0.000
3778 3769 3771 3774 3 2.301 -1.464 0.837 -1.674 -0.000 0.000
3772 3771 3774 3775 3 0.628 1.883 0.000 -2.510 -0.000 0.000
3772 3771 3774 3776 3 0.628 1.883 0.000 -2.510 -0.000 0.000
3772 3771 3774 3777 3 0.628 1.883 0.000 -2.510 -0.000 0.000
3773 3771 3774 3775 3 0.628 1.883 0.000 -2.510 -0.000 0.000
3773 3771 3774 3776 3 0.628 1.883 0.000 -2.510 -0.000 0.000
3773 3771 3774 3777 3 0.628 1.883 0.000 -2.510 -0.000 0.000
3778 3781 3784 3785 3 0.628 1.883 0.000 -2.510 -0.000 0.000
3778 3781 3784 3786 3 0.628 1.883 0.000 -2.510 -0.000 0.000
3778 3781 3784 3787 3 2.301 -1.464 0.837 -1.674 -0.000 0.000
3779 3778 3781 3782 3 0.628 1.883 0.000 -2.510 -0.000 0.000
3779 3778 3781 3783 3 0.628 1.883 0.000 -2.510 -0.000 0.000
3779 3778 3781 3784 3 0.628 1.883 0.000 -2.510 -0.000 0.000
3780 3778 3781 3782 3 0.628 1.883 0.000 -2.510 -0.000 0.000
3780 3778 3781 3783 3 0.628 1.883 0.000 -2.510 -0.000 0.000
3780 3778 3781 3784 3 0.628 1.883 0.000 -2.510 -0.000 0.000
3781 3784 3787 3788 3 0.628 1.883 0.000 -2.510 -0.000 0.000
3781 3784 3787 3789 3 0.628 1.883 0.000 -2.510 -0.000 0.000
3781 3784 3787 3790 3 0.628 1.883 0.000 -2.510 -0.000 0.000
3782 3781 3784 3785 3 0.628 1.883 0.000 -2.510 -0.000 0.000
3782 3781 3784 3786 3 0.628 1.883 0.000 -2.510 -0.000 0.000
3782 3781 3784 3787 3 0.628 1.883 0.000 -2.510 -0.000 0.000
3783 3781 3784 3785 3 0.628 1.883 0.000 -2.510 -0.000 0.000
3783 3781 3784 3786 3 0.628 1.883 0.000 -2.510 -0.000 0.000
3783 3781 3784 3787 3 0.628 1.883 0.000 -2.510 -0.000 0.000
3785 3784 3787 3788 3 0.628 1.883 0.000 -2.510 -0.000 0.000
3785 3784 3787 3789 3 0.628 1.883 0.000 -2.510 -0.000 0.000
3785 3784 3787 3790 3 0.628 1.883 0.000 -2.510 -0.000 0.000
3786 3784 3787 3788 3 0.628 1.883 0.000 -2.510 -0.000 0.000
3786 3784 3787 3789 3 0.628 1.883 0.000 -2.510 -0.000 0.000
3786 3784 3787 3790 3 0.628 1.883 0.000 -2.510 -0.000 0.000
3791 3792 3795 3796 3 -0.778 -2.335 0.000 3.113 -0.000 0.000
3791 3792 3795 3799 3 -0.778 -2.335 0.000 3.113 -0.000 0.000
3792 3795 3796 3797 3 58.576 0.000 -58.576 -0.000 -0.000 0.000
3792 3795 3796 3798 3 58.576 0.000 -58.576 -0.000 -0.000 0.000
3792 3795 3796 3843 3 2.928800 -1.464400 0.209200 -1.673600 0.000000 0.000000
3792 3795 3799 3800 3 1.789 -5.052 -0.962 4.226 -0.000 0.000
3792 3795 3799 3801 3 1.789 -5.052 -0.962 4.226 -0.000 0.000
3793 3792 3795 3796 3 -0.778 -2.335 0.000 3.113 -0.000 0.000
3793 3792 3795 3799 3 -0.778 -2.335 0.000 3.113 -0.000 0.000
3794 3792 3795 3796 3 -0.778 -2.335 0.000 3.113 -0.000 0.000
3794 3792 3795 3799 3 -0.778 -2.335 0.000 3.113 -0.000 0.000
3796 3792 3795 3799 4 180.000 10.460 2
3795 3796 3843 3840 3 2.928800 -1.464400 0.209200 -1.673600 0.000000 0.000000
3795 3796 3843 3844 3 2.928800 -1.464400 0.209200 -1.673600 0.000000 0.000000
3795 3796 3843 3847 3 2.928800 -1.464400 0.209200 -1.673600 0.000000 0.000000
3795 3799 3801 3802 3 31.206 -9.768 -21.439 -0.000 -0.000 0.000
3796 3795 3799 3800 3 30.334 -5.230 -25.104 -0.000 -0.000 0.000
3796 3795 3799 3801 3 -5.858 -6.694 12.552 -0.000 -0.000 0.000
3797 3795 3796 3798 4 180.000 10.460 2
3799 3795 3796 3797 3 58.576 0.000 -58.576 -0.000 -0.000 0.000
3799 3795 3796 3798 3 58.576 0.000 -58.576 -0.000 -0.000 0.000
3799 3795 3796 3843 3 2.928800 -1.464400 0.209200 -1.673600 0.000000 0.000000
3800 3795 3799 3801 4 180.000 43.932 2
3796 3843 3844 3845 3 0.627600 1.882800 0.000000 -2.510400 0.000000 0.000000
3796 3843 3844 3846 3 0.627600 1.882800 0.000000 -2.510400 0.000000 0.000000
3796 3843 3844 3879 3 2.928800 -1.464400 0.209200 -1.673600 0.000000 0.000000
3796 3843 3847 3848 3 2.874410 0.581580 2.092000 -5.547990 0.000000 0.000000
3796 3843 3847 3849 3 2.874410 0.581580 2.092000 -5.547990 0.000000 0.000000
3797 3796 3843 3840 3 0.627600 1.882800 0.000000 -2.510400 0.000000 0.000000
3797 3796 3843 3844 3 0.627600 1.882800 0.000000 -2.510400 0.000000 0.000000
3797 3796 3843 3847 3 0.627600 1.882800 0.000000 -2.510400 0.000000 0.000000
3798 3796 3843 3840 3 0.627600 1.882800 0.000000 -2.510400 0.000000 0.000000
3798 3796 3843 3844 3 0.627600 1.882800 0.000000 -2.510400 0.000000 0.000000
3798 3796 3843 3847 3 0.627600 1.882800 0.000000 -2.510400 0.000000 0.000000
3839 3840 3843 3796 3 0.627600 1.882800 0.000000 -2.510400 0.000000 0.000000
3841 3840 3843 3796 3 0.627600 1.882800 0.000000 -2.510400 0.000000 0.000000
3842 3840 3843 3796 3 0.627600 1.882800 0.000000 -2.510400 0.000000 0.000000
3799 3801 3802 3803 3 0.414 1.243 0.000 -1.657 -0.000 0.000
3799 3801 3802 3804 3 0.414 1.243 0.000 -1.657 -0.000 0.000
3799 3801 3802 3805 3 -2.197 5.201 0.527 -3.531 -0.000 0.000
3800 3799 3801 3802 3 21.439 0.000 -21.439 -0.000 -0.000 0.000
3801 3802 3805 3806 3 0.979 2.937 0.000 -3.916 -0.000 0.000
3801 3802 3805 3807 3 0.979 2.937 0.000 -3.916 -0.000 0.000
3801 3802 3805 3808 3 2.874 0.582 2.092 -5.548 -0.000 0.000
3802 3805 3808 3809 3 0.628 1.883 0.000 -2.510 -0.000 0.000
3802 3805 3808 3810 3 0.628 1.883 0.000 -2.510 -0.000 0.000
3802 3805 3808 3811 3 2.301 -1.464 0.837 -1.674 -0.000 0.000
3803 3802 3805 3806 3 0.628 1.883 0.000 -2.510 -0.000 0.000
3803 3802 3805 3807 3 0.628 1.883 0.000 -2.510 -0.000 0.000
3803 3802 3805 3808 3 0.628 1.883 0.000 -2.510 -0.000 0.000
3804 3802 3805 3806 3 0.628 1.883 0.000 -2.510 -0.000 0.000
3804 3802 3805 3807 3 0.628 1.883 0.000 -2.510 -0.000 0.000
3804 3802 3805 3808 3 0.628 1.883 0.000 -2.510 -0.000 0.000
3805 3808 3811 3812 3 0.628 1.883 0.000 -2.510 -0.000 0.000
3805 3808 3811 3813 3 0.628 1.883 0.000 -2.510 -0.000 0.000
3805 3808 3811 3814 3 2.301 -1.464 0.837 -1.674 -0.000 0.000
3806 3805 3808 3809 3 0.628 1.883 0.000 -2.510 -0.000 0.000
3806 3805 3808 3810 3 0.628 1.883 0.000 -2.510 -0.000 0.000
3806 3805 3808 3811 3 0.628 1.883 0.000 -2.510 -0.000 0.000
3807 3805 3808 3809 3 0.628 1.883 0.000 -2.510 -0.000 0.000
3807 3805 3808 3810 3 0.628 1.883 0.000 -2.510 -0.000 0.000
3807 3805 3808 3811 3 0.628 1.883 0.000 -2.510 -0.000 0.000
3808 3811 3814 3815 3 0.628 1.883 0.000 -2.510 -0.000 0.000
3808 3811 3814 3816 3 0.628 1.883 0.000 -2.510 -0.000 0.000
3808 3811 3814 3817 3 2.301 -1.464 0.837 -1.674 -0.000 0.000
3809 3808 3811 3812 3 0.628 1.883 0.000 -2.510 -0.000 0.000
3809 3808 3811 3813 3 0.628 1.883 0.000 -2.510 -0.000 0.000
3809 3808 3811 3814 3 0.628 1.883 0.000 -2.510 -0.000 0.000
3810 3808 3811 3812 3 0.628 1.883 0.000 -2.510 -0.000 0.000
3810 3808 3811 3813 3 0.628 1.883 0.000 -2.510 -0.000 0.000
3810 3808 3811 3814 3 0.628 1.883 0.000 -2.510 -0.000 0.000
3811 3814 3817 3818 3 0.628 1.883 0.000 -2.510 -0.000 0.000
3811 3814 3817 3819 3 0.628 1.883 0.000 -2.510 -0.000 0.000
3811 3814 3817 3820 3 2.301 -1.464 0.837 -1.674 -0.000 0.000
3812 3811 3814 3815 3 0.628 1.883 0.000 -2.510 -0.000 0.000
3812 3811 3814 3816 3 0.628 1.883 0.000 -2.510 -0.000 0.000
3812 3811 3814 3817 3 0.628 1.883 0.000 -2.510 -0.000 0.000
3813 3811 3814 3815 3 0.628 1.883 0.000 -2.510 -0.000 0.000
3813 3811 3814 3816 3 0.628 1.883 0.000 -2.510 -0.000 0.000
3813 3811 3814 3817 3 0.628 1.883 0.000 -2.510 -0.000 0.000
3814 3817 3820 3821 3 0.628 1.883 0.000 -2.510 -0.000 0.000
3814 3817 3820 3822 3 0.628 1.883 0.000 -2.510 -0.000 0.000
3814 3817 3820 3823 3 2.301 -1.464 0.837 -1.674 -0.000 0.000
3815 3814 3817 3818 3 0.628 1.883 0.000 -2.510 -0.000 0.000
3815 3814 3817 3819 3 0.628 1.883 0.000 -2.510 -0.000 0.000
3815 3814 3817 3820 3 0.628 1.883 0.000 -2.510 -0.000 0.000
3816 3814 3817 3818 3 0.628 1.883 0.000 -2.510 -0.000 0.000
3816 3814 3817 3819 3 0.628 1.883 0.000 -2.510 -0.000 0.000
3816 3814 3817 3820 3 0.628 1.883 0.000 -2.510 -0.000 0.000
3817 3820 3823 3824 3 0.628 1.883 0.000 -2.510 -0.000 0.000
3817 3820 3823 3825 3 0.628 1.883 0.000 -2.510 -0.000 0.000
3817 3820 3823 3826 3 2.301 -1.464 0.837 -1.674 -0.000 0.000
3818 3817 3820 3821 3 0.628 1.883 0.000 -2.510 -0.000 0.000
3818 3817 3820 3822 3 0.628 1.883 0.000 -2.510 -0.000 0.000
3818 3817 3820 3823 3 0.628 1.883 0.000 -2.510 -0.000 0.000
3819 3817 3820 3821 3 0.628 1.883 0.000 -2.510 -0.000 0.000
3819 3817 3820 3822 3 0.628 1.883 0.000 -2.510 -0.000 0.000
3819 3817 3820 3823 3 0.628 1.883 0.000 -2.510 -0.000 0.000
3820 3823 3826 3827 3 0.628 1.883 0.000 -2.510 -0.000 0.000
3820 3823 3826 3828 3 0.628 1.883 0.000 -2.510 -0.000 0.000
3820 3823 3826 3829 3 2.301 -1.464 0.837 -1.674 -0.000 0.000
3821 3820 3823 3824 3 0.628 1.883 0.000 -2.510 -0.000 0.000
3821 3820 3823 3825 3 0.628 1.883 0.000 -2.510 -0.000 0.000
3821 3820 3823 3826 3 0.628 1.883 0.000 -2.510 -0.000 0.000
3822 3820 3823 3824 3 0.628 1.883 0.000 -2.510 -0.000 0.000
3822 3820 3823 3825 3 0.628 1.883 0.000 -2.510 -0.000 0.000
3822 3820 3823 3826 3 0.628 1.883 0.000 -2.510 -0.000 0.000
3823 3826 3829 3830 3 0.628 1.883 0.000 -2.510 -0.000 0.000
3823 3826 3829 3831 3 0.628 1.883 0.000 -2.510 -0.000 0.000
3823 3826 3829 3832 3 2.301 -1.464 0.837 -1.674 -0.000 0.000
3824 3823 3826 3827 3 0.628 1.883 0.000 -2.510 -0.000 0.000
3824 3823 3826 3828 3 0.628 1.883 0.000 -2.510 -0.000 0.000
3824 3823 3826 3829 3 0.628 1.883 0.000 -2.510 -0.000 0.000
3825 3823 3826 3827 3 0.628 1.883 0.000 -2.510 -0.000 0.000
3825 3823 3826 3828 3 0.628 1.883 0.000 -2.510 -0.000 0.000
3825 3823 3826 3829 3 0.628 1.883 0.000 -2.510 -0.000 0.000
3826 3829 3832 3833 3 0.628 1.883 0.000 -2.510 -0.000 0.000
3826 3829 3832 3834 3 0.628 1.883 0.000 -2.510 -0.000 0.000
3826 3829 3832 3835 3 2.301 -1.464 0.837 -1.674 -0.000 0.000
3827 3826 3829 3830 3 0.628 1.883 0.000 -2.510 -0.000 0.000
3827 3826 3829 3831 3 0.628 1.883 0.000 -2.510 -0.000 0.000
3827 3826 3829 3832 3 0.628 1.883 0.000 -2.510 -0.000 0.000
3828 3826 3829 3830 3 0.628 1.883 0.000 -2.510 -0.000 0.000
3828 3826 3829 3831 3 0.628 1.883 0.000 -2.510 -0.000 0.000
3828 3826 3829 3832 3 0.628 1.883 0.000 -2.510 -0.000 0.000
3829 3832 3835 3836 3 0.628 1.883 0.000 -2.510 -0.000 0.000
3829 3832 3835 3837 3 0.628 1.883 0.000 -2.510 -0.000 0.000
3829 3832 3835 3838 3 0.628 1.883 0.000 -2.510 -0.000 0.000
3830 3829 3832 3833 3 0.628 1.883 0.000 -2.510 -0.000 0.000
3830 3829 3832 3834 3 0.628 1.883 0.000 -2.510 -0.000 0.000
3830 3829 3832 3835 3 0.628 1.883 0.000 -2.510 -0.000 0.000
3831 3829 3832 3833 3 0.628 1.883 0.000 -2.510 -0.000 0.000
3831 3829 3832 3834 3 0.628 1.883 0.000 -2.510 -0.000 0.000
3831 3829 3832 3835 3 0.628 1.883 0.000 -2.510 -0.000 0.000
3833 3832 3835 3836 3 0.628 1.883 0.000 -2.510 -0.000 0.000
3833 3832 3835 3837 3 0.628 1.883 0.000 -2.510 -0.000 0.000
3833 3832 3835 3838 3 0.628 1.883 0.000 -2.510 -0.000 0.000
3834 3832 3835 3836 3 0.628 1.883 0.000 -2.510 -0.000 0.000
3834 3832 3835 3837 3 0.628 1.883 0.000 -2.510 -0.000 0.000
3834 3832 3835 3838 3 0.628 1.883 0.000 -2.510 -0.000 0.000
3839 3840 3843 3844 3 -0.778 -2.335 0.000 3.113 -0.000 0.000
3839 3840 3843 3847 3 -0.778 -2.335 0.000 3.113 -0.000 0.000
3840 3843 3844 3845 3 58.576 0.000 -58.576 -0.000 -0.000 0.000
3840 3843 3844 3846 3 58.576 0.000 -58.576 -0.000 -0.000 0.000
3840 3843 3844 3879 3 2.928800 -1.464400 0.209200 -1.673600 0.000000 0.000000
3840 3843 3847 3848 3 1.789 -5.052 -0.962 4.226 -0.000 0.000
3840 3843 3847 3849 3 1.789 -5.052 -0.962 4.226 -0.000 0.000
3841 3840 3843 3844 3 -0.778 -2.335 0.000 3.113 -0.000 0.000
3841 3840 3843 3847 3 -0.778 -2.335 0.000 3.113 -0.000 0.000
3842 3840 3843 3844 3 -0.778 -2.335 0.000 3.113 -0.000 0.000
3842 3840 3843 3847 3 -0.778 -2.335 0.000 3.113 -0.000 0.000
3844 3840 3843 3847 4 180.000 10.460 2
3843 3844 3879 3876 3 2.928800 -1.464400 0.209200 -1.673600 0.000000 0.000000
3843 3844 3879 3880 3 2.928800 -1.464400 0.209200 -1.673600 0.000000 0.000000
3843 3844 3879 3883 3 2.928800 -1.464400 0.209200 -1.673600 0.000000 0.000000
3843 3847 3849 3850 3 31.206 -9.768 -21.439 -0.000 -0.000 0.000
3844 3843 3847 3848 3 30.334 -5.230 -25.104 -0.000 -0.000 0.000
3844 3843 3847 3849 3 -5.858 -6.694 12.552 -0.000 -0.000 0.000
3845 3843 3844 3846 4 180.000 10.460 2
3847 3843 3844 3845 3 58.576 0.000 -58.576 -0.000 -0.000 0.000
3847 3843 3844 3846 3 58.576 0.000 -58.576 -0.000 -0.000 0.000
3847 3843 3844 3879 3 2.928800 -1.464400 0.209200 -1.673600 0.000000 0.000000
3848 3843 3847 3849 4 180.000 43.932 2
3844 3879 3880 3881 3 0.627600 1.882800 0.000000 -2.510400 0.000000 0.000000
3844 3879 3880 3882 3 0.627600 1.882800 0.000000 -2.510400 0.000000 0.000000
3844 3879 3880 3927 3 2.928800 -1.464400 0.209200 -1.673600 0.000000 0.000000
3844 3879 3883 3884 3 2.874410 0.581580 2.092000 -5.547990 0.000000 0.000000
3844 3879 3883 3885 3 2.874410 0.581580 2.092000 -5.547990 0.000000 0.000000
3845 3844 3879 3876 3 0.627600 1.882800 0.000000 -2.510400 0.000000 0.000000
3845 3844 3879 3880 3 0.627600 1.882800 0.000000 -2.510400 0.000000 0.000000
3845 3844 3879 3883 3 0.627600 1.882800 0.000000 -2.510400 0.000000 0.000000
3846 3844 3879 3876 3 0.627600 1.882800 0.000000 -2.510400 0.000000 0.000000
3846 3844 3879 3880 3 0.627600 1.882800 0.000000 -2.510400 0.000000 0.000000
3846 3844 3879 3883 3 0.627600 1.882800 0.000000 -2.510400 0.000000 0.000000
3875 3876 3879 3844 3 0.627600 1.882800 0.000000 -2.510400 0.000000 0.000000
3877 3876 3879 3844 3 0.627600 1.882800 0.000000 -2.510400 0.000000 0.000000
3878 3876 3879 3844 3 0.627600 1.882800 0.000000 -2.510400 0.000000 0.000000
3847 3849 3850 3851 3 0.414 1.243 0.000 -1.657 -0.000 0.000
3847 3849 3850 3852 3 0.414 1.243 0.000 -1.657 -0.000 0.000
3847 3849 3850 3853 3 -2.197 5.201 0.527 -3.531 -0.000 0.000
3848 3847 3849 3850 3 21.439 0.000 -21.439 -0.000 -0.000 0.000
3849 3850 3853 3854 3 0.979 2.937 0.000 -3.916 -0.000 0.000
3849 3850 3853 3855 3 2.874 0.582 2.092 -5.548 -0.000 0.000
3849 3850 3853 3862 3 2.874 0.582 2.092 -5.548 -0.000 0.000
3850 3853 3855 3856 3 0.628 1.883 0.000 -2.510 -0.000 0.000
3850 3853 3855 3857 3 0.628 1.883 0.000 -2.510 -0.000 0.000
3850 3853 3855 3858 3 2.301 -1.464 0.837 -1.674 -0.000 0.000
3850 3853 3862 3863 3 0.628 1.883 0.000 -2.510 -0.000 0.000
3850 3853 3862 3864 3 0.628 1.883 0.000 -2.510 -0.000 0.000
3850 3853 3862 3865 3 2.301 -1.464 0.837 -1.674 -0.000 0.000
3851 3850 3853 3854 3 0.628 1.883 0.000 -2.510 -0.000 0.000
3851 3850 3853 3855 3 0.628 1.883 0.000 -2.510 -0.000 0.000
3851 3850 3853 3862 3 0.628 1.883 0.000 -2.510 -0.000 0.000
3852 3850 3853 3854 3 0.628 1.883 0.000 -2.510 -0.000 0.000
3852 3850 3853 3855 3 0.628 1.883 0.000 -2.510 -0.000 0.000
3852 3850 3853 3862 3 0.628 1.883 0.000 -2.510 -0.000 0.000
3853 3855 3858 3859 3 0.628 1.883 0.000 -2.510 -0.000 0.000
3853 3855 3858 3860 3 0.628 1.883 0.000 -2.510 -0.000 0.000
3853 3855 3858 3861 3 0.628 1.883 0.000 -2.510 -0.000 0.000
3853 3862 3865 3866 3 0.628 1.883 0.000 -2.510 -0.000 0.000
3853 3862 3865 3867 3 0.628 1.883 0.000 -2.510 -0.000 0.000
3853 3862 3865 3868 3 2.301 -1.464 0.837 -1.674 -0.000 0.000
3854 3853 3855 3856 3 0.628 1.883 0.000 -2.510 -0.000 0.000
3854 3853 3855 3857 3 0.628 1.883 0.000 -2.510 -0.000 0.000
3854 3853 3855 3858 3 0.628 1.883 0.000 -2.510 -0.000 0.000
3854 3853 3862 3863 3 0.628 1.883 0.000 -2.510 -0.000 0.000
3854 3853 3862 3864 3 0.628 1.883 0.000 -2.510 -0.000 0.000
3854 3853 3862 3865 3 0.628 1.883 0.000 -2.510 -0.000 0.000
3855 3853 3862 3863 3 0.628 1.883 0.000 -2.510 -0.000 0.000
3855 3853 3862 3864 3 0.628 1.883 0.000 -2.510 -0.000 0.000
3855 3853 3862 3865 3 2.301 -1.464 0.837 -1.674 -0.000 0.000
3862 3853 3855 3856 3 0.628 1.883 0.000 -2.510 -0.000 0.000
3862 3853 3855 3857 3 0.628 1.883 0.000 -2.510 -0.000 0.000
3862 3853 3855 3858 3 2.301 -1.464 0.837 -1.674 -0.000 0.000
3856 3855 3858 3859 3 0.628 1.883 0.000 -2.510 -0.000 0.000
3856 3855 3858 3860 3 0.628 1.883 0.000 -2.510 -0.000 0.000
3856 3855 3858 3861 3 0.628 1.883 0.000 -2.510 -0.000 0.000
3857 3855 3858 3859 3 0.628 1.883 0.000 -2.510 -0.000 0.000
3857 3855 3858 3860 3 0.628 1.883 0.000 -2.510 -0.000 0.000
3857 3855 3858 3861 3 0.628 1.883 0.000 -2.510 -0.000 0.000
3862 3865 3868 3869 3 0.628 1.883 0.000 -2.510 -0.000 0.000
3862 3865 3868 3870 3 0.628 1.883 0.000 -2.510 -0.000 0.000
3862 3865 3868 3871 3 2.301 -1.464 0.837 -1.674 -0.000 0.000
3863 3862 3865 3866 3 0.628 1.883 0.000 -2.510 -0.000 0.000
3863 3862 3865 3867 3 0.628 1.883 0.000 -2.510 -0.000 0.000
3863 3862 3865 3868 3 0.628 1.883 0.000 -2.510 -0.000 0.000
3864 3862 3865 3866 3 0.628 1.883 0.000 -2.510 -0.000 0.000
3864 3862 3865 3867 3 0.628 1.883 0.000 -2.510 -0.000 0.000
3864 3862 3865 3868 3 0.628 1.883 0.000 -2.510 -0.000 0.000
3865 3868 3871 3872 3 0.628 1.883 0.000 -2.510 -0.000 0.000
3865 3868 3871 3873 3 0.628 1.883 0.000 -2.510 -0.000 0.000
3865 3868 3871 3874 3 0.628 1.883 0.000 -2.510 -0.000 0.000
3866 3865 3868 3869 3 0.628 1.883 0.000 -2.510 -0.000 0.000
3866 3865 3868 3870 3 0.628 1.883 0.000 -2.510 -0.000 0.000
3866 3865 3868 3871 3 0.628 1.883 0.000 -2.510 -0.000 0.000
3867 3865 3868 3869 3 0.628 1.883 0.000 -2.510 -0.000 0.000
3867 3865 3868 3870 3 0.628 1.883 0.000 -2.510 -0.000 0.000
3867 3865 3868 3871 3 0.628 1.883 0.000 -2.510 -0.000 0.000
3869 3868 3871 3872 3 0.628 1.883 0.000 -2.510 -0.000 0.000
3869 3868 3871 3873 3 0.628 1.883 0.000 -2.510 -0.000 0.000
3869 3868 3871 3874 3 0.628 1.883 0.000 -2.510 -0.000 0.000
3870 3868 3871 3872 3 0.628 1.883 0.000 -2.510 -0.000 0.000
3870 3868 3871 3873 3 0.628 1.883 0.000 -2.510 -0.000 0.000
3870 3868 3871 3874 3 0.628 1.883 0.000 -2.510 -0.000 0.000
3875 3876 3879 3880 3 -0.778 -2.335 0.000 3.113 -0.000 0.000
3875 3876 3879 3883 3 -0.778 -2.335 0.000 3.113 -0.000 0.000
3876 3879 3880 3881 3 58.576 0.000 -58.576 -0.000 -0.000 0.000
3876 3879 3880 3882 3 58.576 0.000 -58.576 -0.000 -0.000 0.000
3876 3879 3880 3927 3 2.928800 -1.464400 0.209200 -1.673600 0.000000 0.000000
3876 3879 3883 3884 3 1.789 -5.052 -0.962 4.226 -0.000 0.000
3876 3879 3883 3885 3 1.789 -5.052 -0.962 4.226 -0.000 0.000
3877 3876 3879 3880 3 -0.778 -2.335 0.000 3.113 -0.000 0.000
3877 3876 3879 3883 3 -0.778 -2.335 0.000 3.113 -0.000 0.000
3878 3876 3879 3880 3 -0.778 -2.335 0.000 3.113 -0.000 0.000
3878 3876 3879 3883 3 -0.778 -2.335 0.000 3.113 -0.000 0.000
3880 3876 3879 3883 4 180.000 10.460 2
3879 3880 3927 3924 3 2.928800 -1.464400 0.209200 -1.673600 0.000000 0.000000
3879 3880 3927 3928 3 2.928800 -1.464400 0.209200 -1.673600 0.000000 0.000000
3879 3880 3927 3931 3 2.928800 -1.464400 0.209200 -1.673600 0.000000 0.000000
3879 3883 3885 3886 3 31.206 -9.768 -21.439 -0.000 -0.000 0.000
3880 3879 3883 3884 3 30.334 -5.230 -25.104 -0.000 -0.000 0.000
3880 3879 3883 3885 3 -5.858 -6.694 12.552 -0.000 -0.000 0.000
3881 3879 3880 3882 4 180.000 10.460 2
3883 3879 3880 3881 3 58.576 0.000 -58.576 -0.000 -0.000 0.000
3883 3879 3880 3882 3 58.576 0.000 -58.576 -0.000 -0.000 0.000
3883 3879 3880 3927 3 2.928800 -1.464400 0.209200 -1.673600 0.000000 0.000000
3884 3879 3883 3885 4 180.000 43.932 2
3880 3927 3928 3929 3 0.627600 1.882800 0.000000 -2.510400 0.000000 0.000000
3880 3927 3928 3930 3 0.627600 1.882800 0.000000 -2.510400 0.000000 0.000000
3880 3927 3928 3975 3 2.928800 -1.464400 0.209200 -1.673600 0.000000 0.000000
3880 3927 3931 3932 3 2.874410 0.581580 2.092000 -5.547990 0.000000 0.000000
3880 3927 3931 3933 3 2.874410 0.581580 2.092000 -5.547990 0.000000 0.000000
3881 3880 3927 3924 3 0.627600 1.882800 0.000000 -2.510400 0.000000 0.000000
3881 3880 3927 3928 3 0.627600 1.882800 0.000000 -2.510400 0.000000 0.000000
3881 3880 3927 3931 3 0.627600 1.882800 0.000000 -2.510400 0.000000 0.000000
3882 3880 3927 3924 3 0.627600 1.882800 0.000000 -2.510400 0.000000 0.000000
3882 3880 3927 3928 3 0.627600 1.882800 0.000000 -2.510400 0.000000 0.000000
3882 3880 3927 3931 3 0.627600 1.882800 0.000000 -2.510400 0.000000 0.000000
3923 3924 3927 3880 3 0.627600 1.882800 0.000000 -2.510400 0.000000 0.000000
3925 3924 3927 3880 3 0.627600 1.882800 0.000000 -2.510400 0.000000 0.000000
3926 3924 3927 3880 3 0.627600 1.882800 0.000000 -2.510400 0.000000 0.000000
3883 3885 3886 3887 3 0.414 1.243 0.000 -1.657 -0.000 0.000
3883 3885 3886 3888 3 0.414 1.243 0.000 -1.657 -0.000 0.000
3883 3885 3886 3889 3 -2.197 5.201 0.527 -3.531 -0.000 0.000
3884 3883 3885 3886 3 21.439 0.000 -21.439 -0.000 -0.000 0.000
3885 3886 3889 3890 3 0.979 2.937 0.000 -3.916 -0.000 0.000
3885 3886 3889 3891 3 0.979 2.937 0.000 -3.916 -0.000 0.000
3885 3886 3889 3892 3 2.874 0.582 2.092 -5.548 -0.000 0.000
3886 3889 3892 3893 3 0.628 1.883 0.000 -2.510 -0.000 0.000
3886 3889 3892 3894 3 0.628 1.883 0.000 -2.510 -0.000 0.000
3886 3889 3892 3895 3 2.301 -1.464 0.837 -1.674 -0.000 0.000
3887 3886 3889 3890 3 0.628 1.883 0.000 -2.510 -0.000 0.000
3887 3886 3889 3891 3 0.628 1.883 0.000 -2.510 -0.000 0.000
3887 3886 3889 3892 3 0.628 1.883 0.000 -2.510 -0.000 0.000
3888 3886 3889 3890 3 0.628 1.883 0.000 -2.510 -0.000 0.000
3888 3886 3889 3891 3 0.628 1.883 0.000 -2.510 -0.000 0.000
3888 3886 3889 3892 3 0.628 1.883 0.000 -2.510 -0.000 0.000
3889 3892 3895 3896 3 0.628 1.883 0.000 -2.510 -0.000 0.000
3889 3892 3895 3897 3 0.628 1.883 0.000 -2.510 -0.000 0.000
3889 3892 3895 3898 3 2.301 -1.464 0.837 -1.674 -0.000 0.000
3890 3889 3892 3893 3 0.628 1.883 0.000 -2.510 -0.000 0.000
3890 3889 3892 3894 3 0.628 1.883 0.000 -2.510 -0.000 0.000
3890 3889 3892 3895 3 0.628 1.883 0.000 -2.510 -0.000 0.000
3891 3889 3892 3893 3 0.628 1.883 0.000 -2.510 -0.000 0.000
3891 3889 3892 3894 3 0.628 1.883 0.000 -2.510 -0.000 0.000
3891 3889 3892 3895 3 0.628 1.883 0.000 -2.510 -0.000 0.000
3892 3895 3898 3899 3 0.628 1.883 0.000 -2.510 -0.000 0.000
3892 3895 3898 3900 3 0.628 1.883 0.000 -2.510 -0.000 0.000
3892 3895 3898 3901 3 2.301 -1.464 0.837 -1.674 -0.000 0.000
3893 3892 3895 3896 3 0.628 1.883 0.000 -2.510 -0.000 0.000
3893 3892 3895 3897 3 0.628 1.883 0.000 -2.510 -0.000 0.000
3893 3892 3895 3898 3 0.628 1.883 0.000 -2.510 -0.000 0.000
3894 3892 3895 3896 3 0.628 1.883 0.000 -2.510 -0.000 0.000
3894 3892 3895 3897 3 0.628 1.883 0.000 -2.510 -0.000 0.000
3894 3892 3895 3898 3 0.628 1.883 0.000 -2.510 -0.000 0.000
3895 3898 3901 3902 3 0.628 1.883 0.000 -2.510 -0.000 0.000
3895 3898 3901 3903 3 0.628 1.883 0.000 -2.510 -0.000 0.000
3895 3898 3901 3904 3 2.301 -1.464 0.837 -1.674 -0.000 0.000
3896 3895 3898 3899 3 0.628 1.883 0.000 -2.510 -0.000 0.000
3896 3895 3898 3900 3 0.628 1.883 0.000 -2.510 -0.000 0.000
3896 3895 3898 3901 3 0.628 1.883 0.000 -2.510 -0.000 0.000
3897 3895 3898 3899 3 0.628 1.883 0.000 -2.510 -0.000 0.000
3897 3895 3898 3900 3 0.628 1.883 0.000 -2.510 -0.000 0.000
3897 3895 3898 3901 3 0.628 1.883 0.000 -2.510 -0.000 0.000
3898 3901 3904 3905 3 0.628 1.883 0.000 -2.510 -0.000 0.000
3898 3901 3904 3906 3 0.628 1.883 0.000 -2.510 -0.000 0.000
3898 3901 3904 3907 3 2.301 -1.464 0.837 -1.674 -0.000 0.000
3899 3898 3901 3902 3 0.628 1.883 0.000 -2.510 -0.000 0.000
3899 3898 3901 3903 3 0.628 1.883 0.000 -2.510 -0.000 0.000
3899 3898 3901 3904 3 0.628 1.883 0.000 -2.510 -0.000 0.000
3900 3898 3901 3902 3 0.628 1.883 0.000 -2.510 -0.000 0.000
3900 3898 3901 3903 3 0.628 1.883 0.000 -2.510 -0.000 0.000
3900 3898 3901 3904 3 0.628 1.883 0.000 -2.510 -0.000 0.000
3901 3904 3907 3908 3 0.628 1.883 0.000 -2.510 -0.000 0.000
3901 3904 3907 3909 3 0.628 1.883 0.000 -2.510 -0.000 0.000
3901 3904 3907 3910 3 2.301 -1.464 0.837 -1.674 -0.000 0.000
3902 3901 3904 3905 3 0.628 1.883 0.000 -2.510 -0.000 0.000
3902 3901 3904 3906 3 0.628 1.883 0.000 -2.510 -0.000 0.000
3902 3901 3904 3907 3 0.628 1.883 0.000 -2.510 -0.000 0.000
3903 3901 3904 3905 3 0.628 1.883 0.000 -2.510 -0.000 0.000
3903 3901 3904 3906 3 0.628 1.883 0.000 -2.510 -0.000 0.000
3903 3901 3904 3907 3 0.628 1.883 0.000 -2.510 -0.000 0.000
3904 3907 3910 3911 3 0.628 1.883 0.000 -2.510 -0.000 0.000
3904 3907 3910 3912 3 0.628 1.883 0.000 -2.510 -0.000 0.000
3904 3907 3910 3913 3 2.301 -1.464 0.837 -1.674 -0.000 0.000
3905 3904 3907 3908 3 0.628 1.883 0.000 -2.510 -0.000 0.000
3905 3904 3907 3909 3 0.628 1.883 0.000 -2.510 -0.000 0.000
3905 3904 3907 3910 3 0.628 1.883 0.000 -2.510 -0.000 0.000
3906 3904 3907 3908 3 0.628 1.883 0.000 -2.510 -0.000 0.000
3906 3904 3907 3909 3 0.628 1.883 0.000 -2.510 -0.000 0.000
3906 3904 3907 3910 3 0.628 1.883 0.000 -2.510 -0.000 0.000
3907 3910 3913 3914 3 0.628 1.883 0.000 -2.510 -0.000 0.000
3907 3910 3913 3915 3 0.628 1.883 0.000 -2.510 -0.000 0.000
3907 3910 3913 3916 3 2.301 -1.464 0.837 -1.674 -0.000 0.000
3908 3907 3910 3911 3 0.628 1.883 0.000 -2.510 -0.000 0.000
3908 3907 3910 3912 3 0.628 1.883 0.000 -2.510 -0.000 0.000
3908 3907 3910 3913 3 0.628 1.883 0.000 -2.510 -0.000 0.000
3909 3907 3910 3911 3 0.628 1.883 0.000 -2.510 -0.000 0.000
3909 3907 3910 3912 3 0.628 1.883 0.000 -2.510 -0.000 0.000
3909 3907 3910 3913 3 0.628 1.883 0.000 -2.510 -0.000 0.000
3910 3913 3916 3917 3 0.628 1.883 0.000 -2.510 -0.000 0.000
3910 3913 3916 3918 3 0.628 1.883 0.000 -2.510 -0.000 0.000
3910 3913 3916 3919 3 2.301 -1.464 0.837 -1.674 -0.000 0.000
3911 3910 3913 3914 3 0.628 1.883 0.000 -2.510 -0.000 0.000
3911 3910 3913 3915 3 0.628 1.883 0.000 -2.510 -0.000 0.000
3911 3910 3913 3916 3 0.628 1.883 0.000 -2.510 -0.000 0.000
3912 3910 3913 3914 3 0.628 1.883 0.000 -2.510 -0.000 0.000
3912 3910 3913 3915 3 0.628 1.883 0.000 -2.510 -0.000 0.000
3912 3910 3913 3916 3 0.628 1.883 0.000 -2.510 -0.000 0.000
3913 3916 3919 3920 3 0.628 1.883 0.000 -2.510 -0.000 0.000
3913 3916 3919 3921 3 0.628 1.883 0.000 -2.510 -0.000 0.000
3913 3916 3919 3922 3 0.628 1.883 0.000 -2.510 -0.000 0.000
3914 3913 3916 3917 3 0.628 1.883 0.000 -2.510 -0.000 0.000
3914 3913 3916 3918 3 0.628 1.883 0.000 -2.510 -0.000 0.000
3914 3913 3916 3919 3 0.628 1.883 0.000 -2.510 -0.000 0.000
3915 3913 3916 3917 3 0.628 1.883 0.000 -2.510 -0.000 0.000
3915 3913 3916 3918 3 0.628 1.883 0.000 -2.510 -0.000 0.000
3915 3913 3916 3919 3 0.628 1.883 0.000 -2.510 -0.000 0.000
3917 3916 3919 3920 3 0.628 1.883 0.000 -2.510 -0.000 0.000
3917 3916 3919 3921 3 0.628 1.883 0.000 -2.510 -0.000 0.000
3917 3916 3919 3922 3 0.628 1.883 0.000 -2.510 -0.000 0.000
3918 3916 3919 3920 3 0.628 1.883 0.000 -2.510 -0.000 0.000
3918 3916 3919 3921 3 0.628 1.883 0.000 -2.510 -0.000 0.000
3918 3916 3919 3922 3 0.628 1.883 0.000 -2.510 -0.000 0.000
3923 3924 3927 3928 3 -0.778 -2.335 0.000 3.113 -0.000 0.000
3923 3924 3927 3931 3 -0.778 -2.335 0.000 3.113 -0.000 0.000
3924 3927 3928 3929 3 58.576 0.000 -58.576 -0.000 -0.000 0.000
3924 3927 3928 3930 3 58.576 0.000 -58.576 -0.000 -0.000 0.000
3924 3927 3928 3975 3 2.928800 -1.464400 0.209200 -1.673600 0.000000 0.000000
3924 3927 3931 3932 3 1.789 -5.052 -0.962 4.226 -0.000 0.000
3924 3927 3931 3933 3 1.789 -5.052 -0.962 4.226 -0.000 0.000
3925 3924 3927 3928 3 -0.778 -2.335 0.000 3.113 -0.000 0.000
3925 3924 3927 3931 3 -0.778 -2.335 0.000 3.113 -0.000 0.000
3926 3924 3927 3928 3 -0.778 -2.335 0.000 3.113 -0.000 0.000
3926 3924 3927 3931 3 -0.778 -2.335 0.000 3.113 -0.000 0.000
3928 3924 3927 3931 4 180.000 10.460 2
3927 3928 3975 3972 3 2.928800 -1.464400 0.209200 -1.673600 0.000000 0.000000
3927 3928 3975 3976 3 2.928800 -1.464400 0.209200 -1.673600 0.000000 0.000000
3927 3928 3975 3979 3 2.928800 -1.464400 0.209200 -1.673600 0.000000 0.000000
3927 3931 3933 3934 3 31.206 -9.768 -21.439 -0.000 -0.000 0.000
3928 3927 3931 3932 3 30.334 -5.230 -25.104 -0.000 -0.000 0.000
3928 3927 3931 3933 3 -5.858 -6.694 12.552 -0.000 -0.000 0.000
3929 3927 3928 3930 4 180.000 10.460 2
3931 3927 3928 3929 3 58.576 0.000 -58.576 -0.000 -0.000 0.000
3931 3927 3928 3930 3 58.576 0.000 -58.576 -0.000 -0.000 0.000
3931 3927 3928 3975 3 2.928800 -1.464400 0.209200 -1.673600 0.000000 0.000000
3932 3927 3931 3933 4 180.000 43.932 2
3928 3975 3976 3977 3 0.627600 1.882800 0.000000 -2.510400 0.000000 0.000000
3928 3975 3976 3978 3 0.627600 1.882800 0.000000 -2.510400 0.000000 0.000000
3928 3975 3976 4011 3 2.928800 -1.464400 0.209200 -1.673600 0.000000 0.000000
3928 3975 3979 3980 3 2.874410 0.581580 2.092000 -5.547990 0.000000 0.000000
3928 3975 3979 3981 3 2.874410 0.581580 2.092000 -5.547990 0.000000 0.000000
3929 3928 3975 3972 3 0.627600 1.882800 0.000000 -2.510400 0.000000 0.000000
3929 3928 3975 3976 3 0.627600 1.882800 0.000000 -2.510400 0.000000 0.000000
3929 3928 3975 3979 3 0.627600 1.882800 0.000000 -2.510400 0.000000 0.000000
3930 3928 3975 3972 3 0.627600 1.882800 0.000000 -2.510400 0.000000 0.000000
3930 3928 3975 3976 3 0.627600 1.882800 0.000000 -2.510400 0.000000 0.000000
3930 3928 3975 3979 3 0.627600 1.882800 0.000000 -2.510400 0.000000 0.000000
3971 3972 3975 3928 3 0.627600 1.882800 0.000000 -2.510400 0.000000 0.000000
3973 3972 3975 3928 3 0.627600 1.882800 0.000000 -2.510400 0.000000 0.000000
3974 3972 3975 3928 3 0.627600 1.882800 0.000000 -2.510400 0.000000 0.000000
3931 3933 3934 3935 3 0.414 1.243 0.000 -1.657 -0.000 0.000
3931 3933 3934 3936 3 0.414 1.243 0.000 -1.657 -0.000 0.000
3931 3933 3934 3937 3 -2.197 5.201 0.527 -3.531 -0.000 0.000
3932 3931 3933 3934 3 21.439 0.000 -21.439 -0.000 -0.000 0.000
3933 3934 3937 3938 3 0.979 2.937 0.000 -3.916 -0.000 0.000
3933 3934 3937 3939 3 0.979 2.937 0.000 -3.916 -0.000 0.000
3933 3934 3937 3940 3 2.874 0.582 2.092 -5.548 -0.000 0.000
3934 3937 3940 3941 3 0.628 1.883 0.000 -2.510 -0.000 0.000
3934 3937 3940 3942 3 0.628 1.883 0.000 -2.510 -0.000 0.000
3934 3937 3940 3943 3 2.301 -1.464 0.837 -1.674 -0.000 0.000
3935 3934 3937 3938 3 0.628 1.883 0.000 -2.510 -0.000 0.000
3935 3934 3937 3939 3 0.628 1.883 0.000 -2.510 -0.000 0.000
3935 3934 3937 3940 3 0.628 1.883 0.000 -2.510 -0.000 0.000
3936 3934 3937 3938 3 0.628 1.883 0.000 -2.510 -0.000 0.000
3936 3934 3937 3939 3 0.628 1.883 0.000 -2.510 -0.000 0.000
3936 3934 3937 3940 3 0.628 1.883 0.000 -2.510 -0.000 0.000
3937 3940 3943 3944 3 0.628 1.883 0.000 -2.510 -0.000 0.000
3937 3940 3943 3945 3 0.628 1.883 0.000 -2.510 -0.000 0.000
3937 3940 3943 3946 3 2.301 -1.464 0.837 -1.674 -0.000 0.000
3938 3937 3940 3941 3 0.628 1.883 0.000 -2.510 -0.000 0.000
3938 3937 3940 3942 3 0.628 1.883 0.000 -2.510 -0.000 0.000
3938 3937 3940 3943 3 0.628 1.883 0.000 -2.510 -0.000 0.000
3939 3937 3940 3941 3 0.628 1.883 0.000 -2.510 -0.000 0.000
3939 3937 3940 3942 3 0.628 1.883 0.000 -2.510 -0.000 0.000
3939 3937 3940 3943 3 0.628 1.883 0.000 -2.510 -0.000 0.000
3940 3943 3946 3947 3 0.628 1.883 0.000 -2.510 -0.000 0.000
3940 3943 3946 3948 3 0.628 1.883 0.000 -2.510 -0.000 0.000
3940 3943 3946 3949 3 2.301 -1.464 0.837 -1.674 -0.000 0.000
3941 3940 3943 3944 3 0.628 1.883 0.000 -2.510 -0.000 0.000
3941 3940 3943 3945 3 0.628 1.883 0.000 -2.510 -0.000 0.000
3941 3940 3943 3946 3 0.628 1.883 0.000 -2.510 -0.000 0.000
3942 3940 3943 3944 3 0.628 1.883 0.000 -2.510 -0.000 0.000
3942 3940 3943 3945 3 0.628 1.883 0.000 -2.510 -0.000 0.000
3942 3940 3943 3946 3 0.628 1.883 0.000 -2.510 -0.000 0.000
3943 3946 3949 3950 3 0.628 1.883 0.000 -2.510 -0.000 0.000
3943 3946 3949 3951 3 0.628 1.883 0.000 -2.510 -0.000 0.000
3943 3946 3949 3952 3 2.301 -1.464 0.837 -1.674 -0.000 0.000
3944 3943 3946 3947 3 0.628 1.883 0.000 -2.510 -0.000 0.000
3944 3943 3946 3948 3 0.628 1.883 0.000 -2.510 -0.000 0.000
3944 3943 3946 3949 3 0.628 1.883 0.000 -2.510 -0.000 0.000
3945 3943 3946 3947 3 0.628 1.883 0.000 -2.510 -0.000 0.000
3945 3943 3946 3948 3 0.628 1.883 0.000 -2.510 -0.000 0.000
3945 3943 3946 3949 3 0.628 1.883 0.000 -2.510 -0.000 0.000
3946 3949 3952 3953 3 0.628 1.883 0.000 -2.510 -0.000 0.000
3946 3949 3952 3954 3 0.628 1.883 0.000 -2.510 -0.000 0.000
3946 3949 3952 3955 3 2.301 -1.464 0.837 -1.674 -0.000 0.000
3947 3946 3949 3950 3 0.628 1.883 0.000 -2.510 -0.000 0.000
3947 3946 3949 3951 3 0.628 1.883 0.000 -2.510 -0.000 0.000
3947 3946 3949 3952 3 0.628 1.883 0.000 -2.510 -0.000 0.000
3948 3946 3949 3950 3 0.628 1.883 0.000 -2.510 -0.000 0.000
3948 3946 3949 3951 3 0.628 1.883 0.000 -2.510 -0.000 0.000
3948 3946 3949 3952 3 0.628 1.883 0.000 -2.510 -0.000 0.000
3949 3952 3955 3956 3 0.628 1.883 0.000 -2.510 -0.000 0.000
3949 3952 3955 3957 3 0.628 1.883 0.000 -2.510 -0.000 0.000
3949 3952 3955 3958 3 2.301 -1.464 0.837 -1.674 -0.000 0.000
3950 3949 3952 3953 3 0.628 1.883 0.000 -2.510 -0.000 0.000
3950 3949 3952 3954 3 0.628 1.883 0.000 -2.510 -0.000 0.000
3950 3949 3952 3955 3 0.628 1.883 0.000 -2.510 -0.000 0.000
3951 3949 3952 3953 3 0.628 1.883 0.000 -2.510 -0.000 0.000
3951 3949 3952 3954 3 0.628 1.883 0.000 -2.510 -0.000 0.000
3951 3949 3952 3955 3 0.628 1.883 0.000 -2.510 -0.000 0.000
3952 3955 3958 3959 3 0.628 1.883 0.000 -2.510 -0.000 0.000
3952 3955 3958 3960 3 0.628 1.883 0.000 -2.510 -0.000 0.000
3952 3955 3958 3961 3 2.301 -1.464 0.837 -1.674 -0.000 0.000
3953 3952 3955 3956 3 0.628 1.883 0.000 -2.510 -0.000 0.000
3953 3952 3955 3957 3 0.628 1.883 0.000 -2.510 -0.000 0.000
3953 3952 3955 3958 3 0.628 1.883 0.000 -2.510 -0.000 0.000
3954 3952 3955 3956 3 0.628 1.883 0.000 -2.510 -0.000 0.000
3954 3952 3955 3957 3 0.628 1.883 0.000 -2.510 -0.000 0.000
3954 3952 3955 3958 3 0.628 1.883 0.000 -2.510 -0.000 0.000
3955 3958 3961 3962 3 0.628 1.883 0.000 -2.510 -0.000 0.000
3955 3958 3961 3963 3 0.628 1.883 0.000 -2.510 -0.000 0.000
3955 3958 3961 3964 3 2.301 -1.464 0.837 -1.674 -0.000 0.000
3956 3955 3958 3959 3 0.628 1.883 0.000 -2.510 -0.000 0.000
3956 3955 3958 3960 3 0.628 1.883 0.000 -2.510 -0.000 0.000
3956 3955 3958 3961 3 0.628 1.883 0.000 -2.510 -0.000 0.000
3957 3955 3958 3959 3 0.628 1.883 0.000 -2.510 -0.000 0.000
3957 3955 3958 3960 3 0.628 1.883 0.000 -2.510 -0.000 0.000
3957 3955 3958 3961 3 0.628 1.883 0.000 -2.510 -0.000 0.000
3958 3961 3964 3965 3 0.628 1.883 0.000 -2.510 -0.000 0.000
3958 3961 3964 3966 3 0.628 1.883 0.000 -2.510 -0.000 0.000
3958 3961 3964 3967 3 2.301 -1.464 0.837 -1.674 -0.000 0.000
3959 3958 3961 3962 3 0.628 1.883 0.000 -2.510 -0.000 0.000
3959 3958 3961 3963 3 0.628 1.883 0.000 -2.510 -0.000 0.000
3959 3958 3961 3964 3 0.628 1.883 0.000 -2.510 -0.000 0.000
3960 3958 3961 3962 3 0.628 1.883 0.000 -2.510 -0.000 0.000
3960 3958 3961 3963 3 0.628 1.883 0.000 -2.510 -0.000 0.000
3960 3958 3961 3964 3 0.628 1.883 0.000 -2.510 -0.000 0.000
3961 3964 3967 3968 3 0.628 1.883 0.000 -2.510 -0.000 0.000
3961 3964 3967 3969 3 0.628 1.883 0.000 -2.510 -0.000 0.000
3961 3964 3967 3970 3 0.628 1.883 0.000 -2.510 -0.000 0.000
3962 3961 3964 3965 3 0.628 1.883 0.000 -2.510 -0.000 0.000
3962 3961 3964 3966 3 0.628 1.883 0.000 -2.510 -0.000 0.000
3962 3961 3964 3967 3 0.628 1.883 0.000 -2.510 -0.000 0.000
3963 3961 3964 3965 3 0.628 1.883 0.000 -2.510 -0.000 0.000
3963 3961 3964 3966 3 0.628 1.883 0.000 -2.510 -0.000 0.000
3963 3961 3964 3967 3 0.628 1.883 0.000 -2.510 -0.000 0.000
3965 3964 3967 3968 3 0.628 1.883 0.000 -2.510 -0.000 0.000
3965 3964 3967 3969 3 0.628 1.883 0.000 -2.510 -0.000 0.000
3965 3964 3967 3970 3 0.628 1.883 0.000 -2.510 -0.000 0.000
3966 3964 3967 3968 3 0.628 1.883 0.000 -2.510 -0.000 0.000
3966 3964 3967 3969 3 0.628 1.883 0.000 -2.510 -0.000 0.000
3966 3964 3967 3970 3 0.628 1.883 0.000 -2.510 -0.000 0.000
3971 3972 3975 3976 3 -0.778 -2.335 0.000 3.113 -0.000 0.000
3971 3972 3975 3979 3 -0.778 -2.335 0.000 3.113 -0.000 0.000
3972 3975 3976 3977 3 58.576 0.000 -58.576 -0.000 -0.000 0.000
3972 3975 3976 3978 3 58.576 0.000 -58.576 -0.000 -0.000 0.000
3972 3975 3976 4011 3 2.928800 -1.464400 0.209200 -1.673600 0.000000 0.000000
3972 3975 3979 3980 3 1.789 -5.052 -0.962 4.226 -0.000 0.000
3972 3975 3979 3981 3 1.789 -5.052 -0.962 4.226 -0.000 0.000
3973 3972 3975 3976 3 -0.778 -2.335 0.000 3.113 -0.000 0.000
3973 3972 3975 3979 3 -0.778 -2.335 0.000 3.113 -0.000 0.000
3974 3972 3975 3976 3 -0.778 -2.335 0.000 3.113 -0.000 0.000
3974 3972 3975 3979 3 -0.778 -2.335 0.000 3.113 -0.000 0.000
3976 3972 3975 3979 4 180.000 10.460 2
3975 3976 4011 4008 3 2.928800 -1.464400 0.209200 -1.673600 0.000000 0.000000
3975 3976 4011 4012 3 2.928800 -1.464400 0.209200 -1.673600 0.000000 0.000000
3975 3976 4011 4015 3 2.928800 -1.464400 0.209200 -1.673600 0.000000 0.000000
3975 3979 3981 3982 3 31.206 -9.768 -21.439 -0.000 -0.000 0.000
3976 3975 3979 3980 3 30.334 -5.230 -25.104 -0.000 -0.000 0.000
3976 3975 3979 3981 3 -5.858 -6.694 12.552 -0.000 -0.000 0.000
3977 3975 3976 3978 4 180.000 10.460 2
3979 3975 3976 3977 3 58.576 0.000 -58.576 -0.000 -0.000 0.000
3979 3975 3976 3978 3 58.576 0.000 -58.576 -0.000 -0.000 0.000
3979 3975 3976 4011 3 2.928800 -1.464400 0.209200 -1.673600 0.000000 0.000000
3980 3975 3979 3981 4 180.000 43.932 2
3976 4011 4012 4013 3 0.627600 1.882800 0.000000 -2.510400 0.000000 0.000000
3976 4011 4012 4014 3 0.627600 1.882800 0.000000 -2.510400 0.000000 0.000000
3976 4011 4012 4077 3 2.928800 -1.464400 0.209200 -1.673600 0.000000 0.000000
3976 4011 4015 4016 3 2.874410 0.581580 2.092000 -5.547990 0.000000 0.000000
3976 4011 4015 4017 3 2.874410 0.581580 2.092000 -5.547990 0.000000 0.000000
3977 3976 4011 4008 3 0.627600 1.882800 0.000000 -2.510400 0.000000 0.000000
3977 3976 4011 4012 3 0.627600 1.882800 0.000000 -2.510400 0.000000 0.000000
3977 3976 4011 4015 3 0.627600 1.882800 0.000000 -2.510400 0.000000 0.000000
3978 3976 4011 4008 3 0.627600 1.882800 0.000000 -2.510400 0.000000 0.000000
3978 3976 4011 4012 3 0.627600 1.882800 0.000000 -2.510400 0.000000 0.000000
3978 3976 4011 4015 3 0.627600 1.882800 0.000000 -2.510400 0.000000 0.000000
4007 4008 4011 3976 3 0.627600 1.882800 0.000000 -2.510400 0.000000 0.000000
4009 4008 4011 3976 3 0.627600 1.882800 0.000000 -2.510400 0.000000 0.000000
4010 4008 4011 3976 3 0.627600 1.882800 0.000000 -2.510400 0.000000 0.000000
3979 3981 3982 3983 3 0.414 1.243 0.000 -1.657 -0.000 0.000
3979 3981 3982 3984 3 0.414 1.243 0.000 -1.657 -0.000 0.000
3979 3981 3982 3985 3 -2.197 5.201 0.527 -3.531 -0.000 0.000
3980 3979 3981 3982 3 21.439 0.000 -21.439 -0.000 -0.000 0.000
3981 3982 3985 3986 3 0.979 2.937 0.000 -3.916 -0.000 0.000
3981 3982 3985 3987 3 2.874 0.582 2.092 -5.548 -0.000 0.000
3981 3982 3985 3994 3 2.874 0.582 2.092 -5.548 -0.000 0.000
3982 3985 3987 3988 3 0.628 1.883 0.000 -2.510 -0.000 0.000
3982 3985 3987 3989 3 0.628 1.883 0.000 -2.510 -0.000 0.000
3982 3985 3987 3990 3 2.301 -1.464 0.837 -1.674 -0.000 0.000
3982 3985 3994 3995 3 0.628 1.883 0.000 -2.510 -0.000 0.000
3982 3985 3994 3996 3 0.628 1.883 0.000 -2.510 -0.000 0.000
3982 3985 3994 3997 3 2.301 -1.464 0.837 -1.674 -0.000 0.000
3983 3982 3985 3986 3 0.628 1.883 0.000 -2.510 -0.000 0.000
3983 3982 3985 3987 3 0.628 1.883 0.000 -2.510 -0.000 0.000
3983 3982 3985 3994 3 0.628 1.883 0.000 -2.510 -0.000 0.000
3984 3982 3985 3986 3 0.628 1.883 0.000 -2.510 -0.000 0.000
3984 3982 3985 3987 3 0.628 1.883 0.000 -2.510 -0.000 0.000
3984 3982 3985 3994 3 0.628 1.883 0.000 -2.510 -0.000 0.000
3985 3987 3990 3991 3 0.628 1.883 0.000 -2.510 -0.000 0.000
3985 3987 3990 3992 3 0.628 1.883 0.000 -2.510 -0.000 0.000
3985 3987 3990 3993 3 0.628 1.883 0.000 -2.510 -0.000 0.000
3985 3994 3997 3998 3 0.628 1.883 0.000 -2.510 -0.000 0.000
3985 3994 3997 3999 3 0.628 1.883 0.000 -2.510 -0.000 0.000
3985 3994 3997 4000 3 2.301 -1.464 0.837 -1.674 -0.000 0.000
3986 3985 3987 3988 3 0.628 1.883 0.000 -2.510 -0.000 0.000
3986 3985 3987 3989 3 0.628 1.883 0.000 -2.510 -0.000 0.000
3986 3985 3987 3990 3 0.628 1.883 0.000 -2.510 -0.000 0.000
3986 3985 3994 3995 3 0.628 1.883 0.000 -2.510 -0.000 0.000
3986 3985 3994 3996 3 0.628 1.883 0.000 -2.510 -0.000 0.000
3986 3985 3994 3997 3 0.628 1.883 0.000 -2.510 -0.000 0.000
3987 3985 3994 3995 3 0.628 1.883 0.000 -2.510 -0.000 0.000
3987 3985 3994 3996 3 0.628 1.883 0.000 -2.510 -0.000 0.000
3987 3985 3994 3997 3 2.301 -1.464 0.837 -1.674 -0.000 0.000
3994 3985 3987 3988 3 0.628 1.883 0.000 -2.510 -0.000 0.000
3994 3985 3987 3989 3 0.628 1.883 0.000 -2.510 -0.000 0.000
3994 3985 3987 3990 3 2.301 -1.464 0.837 -1.674 -0.000 0.000
3988 3987 3990 3991 3 0.628 1.883 0.000 -2.510 -0.000 0.000
3988 3987 3990 3992 3 0.628 1.883 0.000 -2.510 -0.000 0.000
3988 3987 3990 3993 3 0.628 1.883 0.000 -2.510 -0.000 0.000
3989 3987 3990 3991 3 0.628 1.883 0.000 -2.510 -0.000 0.000
3989 3987 3990 3992 3 0.628 1.883 0.000 -2.510 -0.000 0.000
3989 3987 3990 3993 3 0.628 1.883 0.000 -2.510 -0.000 0.000
3994 3997 4000 4001 3 0.628 1.883 0.000 -2.510 -0.000 0.000
3994 3997 4000 4002 3 0.628 1.883 0.000 -2.510 -0.000 0.000
3994 3997 4000 4003 3 2.301 -1.464 0.837 -1.674 -0.000 0.000
3995 3994 3997 3998 3 0.628 1.883 0.000 -2.510 -0.000 0.000
3995 3994 3997 3999 3 0.628 1.883 0.000 -2.510 -0.000 0.000
3995 3994 3997 4000 3 0.628 1.883 0.000 -2.510 -0.000 0.000
3996 3994 3997 3998 3 0.628 1.883 0.000 -2.510 -0.000 0.000
3996 3994 3997 3999 3 0.628 1.883 0.000 -2.510 -0.000 0.000
3996 3994 3997 4000 3 0.628 1.883 0.000 -2.510 -0.000 0.000
3997 4000 4003 4004 3 0.628 1.883 0.000 -2.510 -0.000 0.000
3997 4000 4003 4005 3 0.628 1.883 0.000 -2.510 -0.000 0.000
3997 4000 4003 4006 3 0.628 1.883 0.000 -2.510 -0.000 0.000
3998 3997 4000 4001 3 0.628 1.883 0.000 -2.510 -0.000 0.000
3998 3997 4000 4002 3 0.628 1.883 0.000 -2.510 -0.000 0.000
3998 3997 4000 4003 3 0.628 1.883 0.000 -2.510 -0.000 0.000
3999 3997 4000 4001 3 0.628 1.883 0.000 -2.510 -0.000 0.000
3999 3997 4000 4002 3 0.628 1.883 0.000 -2.510 -0.000 0.000
3999 3997 4000 4003 3 0.628 1.883 0.000 -2.510 -0.000 0.000
4001 4000 4003 4004 3 0.628 1.883 0.000 -2.510 -0.000 0.000
4001 4000 4003 4005 3 0.628 1.883 0.000 -2.510 -0.000 0.000
4001 4000 4003 4006 3 0.628 1.883 0.000 -2.510 -0.000 0.000
4002 4000 4003 4004 3 0.628 1.883 0.000 -2.510 -0.000 0.000
4002 4000 4003 4005 3 0.628 1.883 0.000 -2.510 -0.000 0.000
4002 4000 4003 4006 3 0.628 1.883 0.000 -2.510 -0.000 0.000
4007 4008 4011 4012 3 -0.778 -2.335 0.000 3.113 -0.000 0.000
4007 4008 4011 4015 3 -0.778 -2.335 0.000 3.113 -0.000 0.000
4008 4011 4012 4013 3 58.576 0.000 -58.576 -0.000 -0.000 0.000
4008 4011 4012 4014 3 58.576 0.000 -58.576 -0.000 -0.000 0.000
4008 4011 4012 4077 3 2.928800 -1.464400 0.209200 -1.673600 0.000000 0.000000
4008 4011 4015 4016 3 1.789 -5.052 -0.962 4.226 -0.000 0.000
4008 4011 4015 4017 3 1.789 -5.052 -0.962 4.226 -0.000 0.000
4009 4008 4011 4012 3 -0.778 -2.335 0.000 3.113 -0.000 0.000
4009 4008 4011 4015 3 -0.778 -2.335 0.000 3.113 -0.000 0.000
4010 4008 4011 4012 3 -0.778 -2.335 0.000 3.113 -0.000 0.000
4010 4008 4011 4015 3 -0.778 -2.335 0.000 3.113 -0.000 0.000
4012 4008 4011 4015 4 180.000 10.460 2
4011 4012 4077 4074 3 2.928800 -1.464400 0.209200 -1.673600 0.000000 0.000000
4011 4012 4077 4078 3 2.928800 -1.464400 0.209200 -1.673600 0.000000 0.000000
4011 4012 4077 4081 3 2.928800 -1.464400 0.209200 -1.673600 0.000000 0.000000
4011 4015 4017 4018 3 31.206 -9.768 -21.439 -0.000 -0.000 0.000
4012 4011 4015 4016 3 30.334 -5.230 -25.104 -0.000 -0.000 0.000
4012 4011 4015 4017 3 -5.858 -6.694 12.552 -0.000 -0.000 0.000
4013 4011 4012 4014 4 180.000 10.460 2
4015 4011 4012 4013 3 58.576 0.000 -58.576 -0.000 -0.000 0.000
4015 4011 4012 4014 3 58.576 0.000 -58.576 -0.000 -0.000 0.000
4015 4011 4012 4077 3 2.928800 -1.464400 0.209200 -1.673600 0.000000 0.000000
4016 4011 4015 4017 4 180.000 43.932 2
4012 4077 4078 4079 3 0.627600 1.882800 0.000000 -2.510400 0.000000 0.000000
4012 4077 4078 4080 3 0.627600 1.882800 0.000000 -2.510400 0.000000 0.000000
4012 4077 4078 4125 3 2.928800 -1.464400 0.209200 -1.673600 0.000000 0.000000
4012 4077 4081 4082 3 2.874410 0.581580 2.092000 -5.547990 0.000000 0.000000
4012 4077 4081 4083 3 2.874410 0.581580 2.092000 -5.547990 0.000000 0.000000
4013 4012 4077 4074 3 0.627600 1.882800 0.000000 -2.510400 0.000000 0.000000
4013 4012 4077 4078 3 0.627600 1.882800 0.000000 -2.510400 0.000000 0.000000
4013 4012 4077 4081 3 0.627600 1.882800 0.000000 -2.510400 0.000000 0.000000
4014 4012 4077 4074 3 0.627600 1.882800 0.000000 -2.510400 0.000000 0.000000
4014 4012 4077 4078 3 0.627600 1.882800 0.000000 -2.510400 0.000000 0.000000
4014 4012 4077 4081 3 0.627600 1.882800 0.000000 -2.510400 0.000000 0.000000
4073 4074 4077 4012 3 0.627600 1.882800 0.000000 -2.510400 0.000000 0.000000
4075 4074 4077 4012 3 0.627600 1.882800 0.000000 -2.510400 0.000000 0.000000
4076 4074 4077 4012 3 0.627600 1.882800 0.000000 -2.510400 0.000000 0.000000
4015 4017 4018 4019 3 0.414 1.243 0.000 -1.657 -0.000 0.000
4015 4017 4018 4020 3 0.414 1.243 0.000 -1.657 -0.000 0.000
4015 4017 4018 4021 3 -2.197 5.201 0.527 -3.531 -0.000 0.000
4016 4015 4017 4018 3 21.439 0.000 -21.439 -0.000 -0.000 0.000
4017 4018 4021 4022 3 0.979 2.937 0.000 -3.916 -0.000 0.000
4017 4018 4021 4023 3 0.979 2.937 0.000 -3.916 -0.000 0.000
4017 4018 4021 4024 3 2.874 0.582 2.092 -5.548 -0.000 0.000
4018 4021 4024 4025 3 0.628 1.883 0.000 -2.510 -0.000 0.000
4018 4021 4024 4026 3 0.628 1.883 0.000 -2.510 -0.000 0.000
4018 4021 4024 4027 3 2.301 -1.464 0.837 -1.674 -0.000 0.000
4019 4018 4021 4022 3 0.628 1.883 0.000 -2.510 -0.000 0.000
4019 4018 4021 4023 3 0.628 1.883 0.000 -2.510 -0.000 0.000
4019 4018 4021 4024 3 0.628 1.883 0.000 -2.510 -0.000 0.000
4020 4018 4021 4022 3 0.628 1.883 0.000 -2.510 -0.000 0.000
4020 4018 4021 4023 3 0.628 1.883 0.000 -2.510 -0.000 0.000
4020 4018 4021 4024 3 0.628 1.883 0.000 -2.510 -0.000 0.000
4021 4024 4027 4028 3 0.628 1.883 0.000 -2.510 -0.000 0.000
4021 4024 4027 4029 3 0.628 1.883 0.000 -2.510 -0.000 0.000
4021 4024 4027 4030 3 2.301 -1.464 0.837 -1.674 -0.000 0.000
4022 4021 4024 4025 3 0.628 1.883 0.000 -2.510 -0.000 0.000
4022 4021 4024 4026 3 0.628 1.883 0.000 -2.510 -0.000 0.000
4022 4021 4024 4027 3 0.628 1.883 0.000 -2.510 -0.000 0.000
4023 4021 4024 4025 3 0.628 1.883 0.000 -2.510 -0.000 0.000
4023 4021 4024 4026 3 0.628 1.883 0.000 -2.510 -0.000 0.000
4023 4021 4024 4027 3 0.628 1.883 0.000 -2.510 -0.000 0.000
4024 4027 4030 4031 3 0.628 1.883 0.000 -2.510 -0.000 0.000
4024 4027 4030 4032 3 0.628 1.883 0.000 -2.510 -0.000 0.000
4024 4027 4030 4033 3 2.301 -1.464 0.837 -1.674 -0.000 0.000
4025 4024 4027 4028 3 0.628 1.883 0.000 -2.510 -0.000 0.000
4025 4024 4027 4029 3 0.628 1.883 0.000 -2.510 -0.000 0.000
4025 4024 4027 4030 3 0.628 1.883 0.000 -2.510 -0.000 0.000
4026 4024 4027 4028 3 0.628 1.883 0.000 -2.510 -0.000 0.000
4026 4024 4027 4029 3 0.628 1.883 0.000 -2.510 -0.000 0.000
4026 4024 4027 4030 3 0.628 1.883 0.000 -2.510 -0.000 0.000
4027 4030 4033 4034 3 0.628 1.883 0.000 -2.510 -0.000 0.000
4027 4030 4033 4035 3 0.628 1.883 0.000 -2.510 -0.000 0.000
4027 4030 4033 4036 3 2.301 -1.464 0.837 -1.674 -0.000 0.000
4028 4027 4030 4031 3 0.628 1.883 0.000 -2.510 -0.000 0.000
4028 4027 4030 4032 3 0.628 1.883 0.000 -2.510 -0.000 0.000
4028 4027 4030 4033 3 0.628 1.883 0.000 -2.510 -0.000 0.000
4029 4027 4030 4031 3 0.628 1.883 0.000 -2.510 -0.000 0.000
4029 4027 4030 4032 3 0.628 1.883 0.000 -2.510 -0.000 0.000
4029 4027 4030 4033 3 0.628 1.883 0.000 -2.510 -0.000 0.000
4030 4033 4036 4037 3 0.628 1.883 0.000 -2.510 -0.000 0.000
4030 4033 4036 4038 3 0.628 1.883 0.000 -2.510 -0.000 0.000
4030 4033 4036 4039 3 2.301 -1.464 0.837 -1.674 -0.000 0.000
4031 4030 4033 4034 3 0.628 1.883 0.000 -2.510 -0.000 0.000
4031 4030 4033 4035 3 0.628 1.883 0.000 -2.510 -0.000 0.000
4031 4030 4033 4036 3 0.628 1.883 0.000 -2.510 -0.000 0.000
4032 4030 4033 4034 3 0.628 1.883 0.000 -2.510 -0.000 0.000
4032 4030 4033 4035 3 0.628 1.883 0.000 -2.510 -0.000 0.000
4032 4030 4033 4036 3 0.628 1.883 0.000 -2.510 -0.000 0.000
4033 4036 4039 4040 3 0.628 1.883 0.000 -2.510 -0.000 0.000
4033 4036 4039 4041 3 0.628 1.883 0.000 -2.510 -0.000 0.000
4033 4036 4039 4042 3 2.301 -1.464 0.837 -1.674 -0.000 0.000
4034 4033 4036 4037 3 0.628 1.883 0.000 -2.510 -0.000 0.000
4034 4033 4036 4038 3 0.628 1.883 0.000 -2.510 -0.000 0.000
4034 4033 4036 4039 3 0.628 1.883 0.000 -2.510 -0.000 0.000
4035 4033 4036 4037 3 0.628 1.883 0.000 -2.510 -0.000 0.000
4035 4033 4036 4038 3 0.628 1.883 0.000 -2.510 -0.000 0.000
4035 4033 4036 4039 3 0.628 1.883 0.000 -2.510 -0.000 0.000
4036 4039 4042 4043 3 0.628 1.883 0.000 -2.510 -0.000 0.000
4036 4039 4042 4044 3 0.628 1.883 0.000 -2.510 -0.000 0.000
4036 4039 4042 4045 3 2.301 -1.464 0.837 -1.674 -0.000 0.000
4037 4036 4039 4040 3 0.628 1.883 0.000 -2.510 -0.000 0.000
4037 4036 4039 4041 3 0.628 1.883 0.000 -2.510 -0.000 0.000
4037 4036 4039 4042 3 0.628 1.883 0.000 -2.510 -0.000 0.000
4038 4036 4039 4040 3 0.628 1.883 0.000 -2.510 -0.000 0.000
4038 4036 4039 4041 3 0.628 1.883 0.000 -2.510 -0.000 0.000
4038 4036 4039 4042 3 0.628 1.883 0.000 -2.510 -0.000 0.000
4039 4042 4045 4046 3 0.628 1.883 0.000 -2.510 -0.000 0.000
4039 4042 4045 4047 3 0.628 1.883 0.000 -2.510 -0.000 0.000
4039 4042 4045 4048 3 2.301 -1.464 0.837 -1.674 -0.000 0.000
4040 4039 4042 4043 3 0.628 1.883 0.000 -2.510 -0.000 0.000
4040 4039 4042 4044 3 0.628 1.883 0.000 -2.510 -0.000 0.000
4040 4039 4042 4045 3 0.628 1.883 0.000 -2.510 -0.000 0.000
4041 4039 4042 4043 3 0.628 1.883 0.000 -2.510 -0.000 0.000
4041 4039 4042 4044 3 0.628 1.883 0.000 -2.510 -0.000 0.000
4041 4039 4042 4045 3 0.628 1.883 0.000 -2.510 -0.000 0.000
4042 4045 4048 4049 3 0.628 1.883 0.000 -2.510 -0.000 0.000
4042 4045 4048 4050 3 0.628 1.883 0.000 -2.510 -0.000 0.000
4042 4045 4048 4051 3 2.301 -1.464 0.837 -1.674 -0.000 0.000
4043 4042 4045 4046 3 0.628 1.883 0.000 -2.510 -0.000 0.000
4043 4042 4045 4047 3 0.628 1.883 0.000 -2.510 -0.000 0.000
4043 4042 4045 4048 3 0.628 1.883 0.000 -2.510 -0.000 0.000
4044 4042 4045 4046 3 0.628 1.883 0.000 -2.510 -0.000 0.000
4044 4042 4045 4047 3 0.628 1.883 0.000 -2.510 -0.000 0.000
4044 4042 4045 4048 3 0.628 1.883 0.000 -2.510 -0.000 0.000
4045 4048 4051 4052 3 0.628 1.883 0.000 -2.510 -0.000 0.000
4045 4048 4051 4053 3 0.628 1.883 0.000 -2.510 -0.000 0.000
4045 4048 4051 4054 3 2.301 -1.464 0.837 -1.674 -0.000 0.000
4046 4045 4048 4049 3 0.628 1.883 0.000 -2.510 -0.000 0.000
4046 4045 4048 4050 3 0.628 1.883 0.000 -2.510 -0.000 0.000
4046 4045 4048 4051 3 0.628 1.883 0.000 -2.510 -0.000 0.000
4047 4045 4048 4049 3 0.628 1.883 0.000 -2.510 -0.000 0.000
4047 4045 4048 4050 3 0.628 1.883 0.000 -2.510 -0.000 0.000
4047 4045 4048 4051 3 0.628 1.883 0.000 -2.510 -0.000 0.000
4048 4051 4054 4055 3 0.628 1.883 0.000 -2.510 -0.000 0.000
4048 4051 4054 4056 3 0.628 1.883 0.000 -2.510 -0.000 0.000
4048 4051 4054 4057 3 2.301 -1.464 0.837 -1.674 -0.000 0.000
4049 4048 4051 4052 3 0.628 1.883 0.000 -2.510 -0.000 0.000
4049 4048 4051 4053 3 0.628 1.883 0.000 -2.510 -0.000 0.000
4049 4048 4051 4054 3 0.628 1.883 0.000 -2.510 -0.000 0.000
4050 4048 4051 4052 3 0.628 1.883 0.000 -2.510 -0.000 0.000
4050 4048 4051 4053 3 0.628 1.883 0.000 -2.510 -0.000 0.000
4050 4048 4051 4054 3 0.628 1.883 0.000 -2.510 -0.000 0.000
4051 4054 4057 4058 3 0.628 1.883 0.000 -2.510 -0.000 0.000
4051 4054 4057 4059 3 0.628 1.883 0.000 -2.510 -0.000 0.000
4051 4054 4057 4060 3 2.301 -1.464 0.837 -1.674 -0.000 0.000
4052 4051 4054 4055 3 0.628 1.883 0.000 -2.510 -0.000 0.000
4052 4051 4054 4056 3 0.628 1.883 0.000 -2.510 -0.000 0.000
4052 4051 4054 4057 3 0.628 1.883 0.000 -2.510 -0.000 0.000
4053 4051 4054 4055 3 0.628 1.883 0.000 -2.510 -0.000 0.000
4053 4051 4054 4056 3 0.628 1.883 0.000 -2.510 -0.000 0.000
4053 4051 4054 4057 3 0.628 1.883 0.000 -2.510 -0.000 0.000
4054 4057 4060 4061 3 0.628 1.883 0.000 -2.510 -0.000 0.000
4054 4057 4060 4062 3 0.628 1.883 0.000 -2.510 -0.000 0.000
4054 4057 4060 4063 3 2.301 -1.464 0.837 -1.674 -0.000 0.000
4055 4054 4057 4058 3 0.628 1.883 0.000 -2.510 -0.000 0.000
4055 4054 4057 4059 3 0.628 1.883 0.000 -2.510 -0.000 0.000
4055 4054 4057 4060 3 0.628 1.883 0.000 -2.510 -0.000 0.000
4056 4054 4057 4058 3 0.628 1.883 0.000 -2.510 -0.000 0.000
4056 4054 4057 4059 3 0.628 1.883 0.000 -2.510 -0.000 0.000
4056 4054 4057 4060 3 0.628 1.883 0.000 -2.510 -0.000 0.000
4057 4060 4063 4064 3 0.628 1.883 0.000 -2.510 -0.000 0.000
4057 4060 4063 4065 3 0.628 1.883 0.000 -2.510 -0.000 0.000
4057 4060 4063 4066 3 2.301 -1.464 0.837 -1.674 -0.000 0.000
4058 4057 4060 4061 3 0.628 1.883 0.000 -2.510 -0.000 0.000
4058 4057 4060 4062 3 0.628 1.883 0.000 -2.510 -0.000 0.000
4058 4057 4060 4063 3 0.628 1.883 0.000 -2.510 -0.000 0.000
4059 4057 4060 4061 3 0.628 1.883 0.000 -2.510 -0.000 0.000
4059 4057 4060 4062 3 0.628 1.883 0.000 -2.510 -0.000 0.000
4059 4057 4060 4063 3 0.628 1.883 0.000 -2.510 -0.000 0.000
4060 4063 4066 4067 3 0.628 1.883 0.000 -2.510 -0.000 0.000
4060 4063 4066 4068 3 0.628 1.883 0.000 -2.510 -0.000 0.000
4060 4063 4066 4069 3 2.301 -1.464 0.837 -1.674 -0.000 0.000
4061 4060 4063 4064 3 0.628 1.883 0.000 -2.510 -0.000 0.000
4061 4060 4063 4065 3 0.628 1.883 0.000 -2.510 -0.000 0.000
4061 4060 4063 4066 3 0.628 1.883 0.000 -2.510 -0.000 0.000
4062 4060 4063 4064 3 0.628 1.883 0.000 -2.510 -0.000 0.000
4062 4060 4063 4065 3 0.628 1.883 0.000 -2.510 -0.000 0.000
4062 4060 4063 4066 3 0.628 1.883 0.000 -2.510 -0.000 0.000
4063 4066 4069 4070 3 0.628 1.883 0.000 -2.510 -0.000 0.000
4063 4066 4069 4071 3 0.628 1.883 0.000 -2.510 -0.000 0.000
4063 4066 4069 4072 3 0.628 1.883 0.000 -2.510 -0.000 0.000
4064 4063 4066 4067 3 0.628 1.883 0.000 -2.510 -0.000 0.000
4064 4063 4066 4068 3 0.628 1.883 0.000 -2.510 -0.000 0.000
4064 4063 4066 4069 3 0.628 1.883 0.000 -2.510 -0.000 0.000
4065 4063 4066 4067 3 0.628 1.883 0.000 -2.510 -0.000 0.000
4065 4063 4066 4068 3 0.628 1.883 0.000 -2.510 -0.000 0.000
4065 4063 4066 4069 3 0.628 1.883 0.000 -2.510 -0.000 0.000
4067 4066 4069 4070 3 0.628 1.883 0.000 -2.510 -0.000 0.000
4067 4066 4069 4071 3 0.628 1.883 0.000 -2.510 -0.000 0.000
4067 4066 4069 4072 3 0.628 1.883 0.000 -2.510 -0.000 0.000
4068 4066 4069 4070 3 0.628 1.883 0.000 -2.510 -0.000 0.000
4068 4066 4069 4071 3 0.628 1.883 0.000 -2.510 -0.000 0.000
4068 4066 4069 4072 3 0.628 1.883 0.000 -2.510 -0.000 0.000
4073 4074 4077 4078 3 -0.778 -2.335 0.000 3.113 -0.000 0.000
4073 4074 4077 4081 3 -0.778 -2.335 0.000 3.113 -0.000 0.000
4074 4077 4078 4079 3 58.576 0.000 -58.576 -0.000 -0.000 0.000
4074 4077 4078 4080 3 58.576 0.000 -58.576 -0.000 -0.000 0.000
4074 4077 4078 4125 3 2.928800 -1.464400 0.209200 -1.673600 0.000000 0.000000
4074 4077 4081 4082 3 1.789 -5.052 -0.962 4.226 -0.000 0.000
4074 4077 4081 4083 3 1.789 -5.052 -0.962 4.226 -0.000 0.000
4075 4074 4077 4078 3 -0.778 -2.335 0.000 3.113 -0.000 0.000
4075 4074 4077 4081 3 -0.778 -2.335 0.000 3.113 -0.000 0.000
4076 4074 4077 4078 3 -0.778 -2.335 0.000 3.113 -0.000 0.000
4076 4074 4077 4081 3 -0.778 -2.335 0.000 3.113 -0.000 0.000
4078 4074 4077 4081 4 180.000 10.460 2
4077 4078 4125 4122 3 2.928800 -1.464400 0.209200 -1.673600 0.000000 0.000000
4077 4078 4125 4126 3 2.928800 -1.464400 0.209200 -1.673600 0.000000 0.000000
4077 4078 4125 4129 3 2.928800 -1.464400 0.209200 -1.673600 0.000000 0.000000
4077 4081 4083 4084 3 31.206 -9.768 -21.439 -0.000 -0.000 0.000
4078 4077 4081 4082 3 30.334 -5.230 -25.104 -0.000 -0.000 0.000
4078 4077 4081 4083 3 -5.858 -6.694 12.552 -0.000 -0.000 0.000
4079 4077 4078 4080 4 180.000 10.460 2
4081 4077 4078 4079 3 58.576 0.000 -58.576 -0.000 -0.000 0.000
4081 4077 4078 4080 3 58.576 0.000 -58.576 -0.000 -0.000 0.000
4081 4077 4078 4125 3 2.928800 -1.464400 0.209200 -1.673600 0.000000 0.000000
4082 4077 4081 4083 4 180.000 43.932 2
4078 4125 4126 4127 3 0.627600 1.882800 0.000000 -2.510400 0.000000 0.000000
4078 4125 4126 4128 3 0.627600 1.882800 0.000000 -2.510400 0.000000 0.000000
4078 4125 4126 4187 3 2.928800 -1.464400 0.209200 -1.673600 0.000000 0.000000
4078 4125 4129 4130 3 2.874410 0.581580 2.092000 -5.547990 0.000000 0.000000
4078 4125 4129 4131 3 2.874410 0.581580 2.092000 -5.547990 0.000000 0.000000
4079 4078 4125 4122 3 0.627600 1.882800 0.000000 -2.510400 0.000000 0.000000
4079 4078 4125 4126 3 0.627600 1.882800 0.000000 -2.510400 0.000000 0.000000
4079 4078 4125 4129 3 0.627600 1.882800 0.000000 -2.510400 0.000000 0.000000
4080 4078 4125 4122 3 0.627600 1.882800 0.000000 -2.510400 0.000000 0.000000
4080 4078 4125 4126 3 0.627600 1.882800 0.000000 -2.510400 0.000000 0.000000
4080 4078 4125 4129 3 0.627600 1.882800 0.000000 -2.510400 0.000000 0.000000
4121 4122 4125 4078 3 0.627600 1.882800 0.000000 -2.510400 0.000000 0.000000
4123 4122 4125 4078 3 0.627600 1.882800 0.000000 -2.510400 0.000000 0.000000
4124 4122 4125 4078 3 0.627600 1.882800 0.000000 -2.510400 0.000000 0.000000
4081 4083 4084 4085 3 0.414 1.243 0.000 -1.657 -0.000 0.000
4081 4083 4084 4086 3 0.414 1.243 0.000 -1.657 -0.000 0.000
4081 4083 4084 4087 3 -2.197 5.201 0.527 -3.531 -0.000 0.000
4082 4081 4083 4084 3 21.439 0.000 -21.439 -0.000 -0.000 0.000
4083 4084 4087 4088 3 0.979 2.937 0.000 -3.916 -0.000 0.000
4083 4084 4087 4089 3 0.979 2.937 0.000 -3.916 -0.000 0.000
4083 4084 4087 4090 3 2.874 0.582 2.092 -5.548 -0.000 0.000
4084 4087 4090 4091 3 0.628 1.883 0.000 -2.510 -0.000 0.000
4084 4087 4090 4092 3 0.628 1.883 0.000 -2.510 -0.000 0.000
4084 4087 4090 4093 3 2.301 -1.464 0.837 -1.674 -0.000 0.000
4085 4084 4087 4088 3 0.628 1.883 0.000 -2.510 -0.000 0.000
4085 4084 4087 4089 3 0.628 1.883 0.000 -2.510 -0.000 0.000
4085 4084 4087 4090 3 0.628 1.883 0.000 -2.510 -0.000 0.000
4086 4084 4087 4088 3 0.628 1.883 0.000 -2.510 -0.000 0.000
4086 4084 4087 4089 3 0.628 1.883 0.000 -2.510 -0.000 0.000
4086 4084 4087 4090 3 0.628 1.883 0.000 -2.510 -0.000 0.000
4087 4090 4093 4094 3 0.628 1.883 0.000 -2.510 -0.000 0.000
4087 4090 4093 4095 3 0.628 1.883 0.000 -2.510 -0.000 0.000
4087 4090 4093 4096 3 2.301 -1.464 0.837 -1.674 -0.000 0.000
4088 4087 4090 4091 3 0.628 1.883 0.000 -2.510 -0.000 0.000
4088 4087 4090 4092 3 0.628 1.883 0.000 -2.510 -0.000 0.000
4088 4087 4090 4093 3 0.628 1.883 0.000 -2.510 -0.000 0.000
4089 4087 4090 4091 3 0.628 1.883 0.000 -2.510 -0.000 0.000
4089 4087 4090 4092 3 0.628 1.883 0.000 -2.510 -0.000 0.000
4089 4087 4090 4093 3 0.628 1.883 0.000 -2.510 -0.000 0.000
4090 4093 4096 4097 3 0.628 1.883 0.000 -2.510 -0.000 0.000
4090 4093 4096 4098 3 0.628 1.883 0.000 -2.510 -0.000 0.000
4090 4093 4096 4099 3 2.301 -1.464 0.837 -1.674 -0.000 0.000
4091 4090 4093 4094 3 0.628 1.883 0.000 -2.510 -0.000 0.000
4091 4090 4093 4095 3 0.628 1.883 0.000 -2.510 -0.000 0.000
4091 4090 4093 4096 3 0.628 1.883 0.000 -2.510 -0.000 0.000
4092 4090 4093 4094 3 0.628 1.883 0.000 -2.510 -0.000 0.000
4092 4090 4093 4095 3 0.628 1.883 0.000 -2.510 -0.000 0.000
4092 4090 4093 4096 3 0.628 1.883 0.000 -2.510 -0.000 0.000
4093 4096 4099 4100 3 0.628 1.883 0.000 -2.510 -0.000 0.000
4093 4096 4099 4101 3 0.628 1.883 0.000 -2.510 -0.000 0.000
4093 4096 4099 4102 3 2.301 -1.464 0.837 -1.674 -0.000 0.000
4094 4093 4096 4097 3 0.628 1.883 0.000 -2.510 -0.000 0.000
4094 4093 4096 4098 3 0.628 1.883 0.000 -2.510 -0.000 0.000
4094 4093 4096 4099 3 0.628 1.883 0.000 -2.510 -0.000 0.000
4095 4093 4096 4097 3 0.628 1.883 0.000 -2.510 -0.000 0.000
4095 4093 4096 4098 3 0.628 1.883 0.000 -2.510 -0.000 0.000
4095 4093 4096 4099 3 0.628 1.883 0.000 -2.510 -0.000 0.000
4096 4099 4102 4103 3 0.628 1.883 0.000 -2.510 -0.000 0.000
4096 4099 4102 4104 3 0.628 1.883 0.000 -2.510 -0.000 0.000
4096 4099 4102 4105 3 2.301 -1.464 0.837 -1.674 -0.000 0.000
4097 4096 4099 4100 3 0.628 1.883 0.000 -2.510 -0.000 0.000
4097 4096 4099 4101 3 0.628 1.883 0.000 -2.510 -0.000 0.000
4097 4096 4099 4102 3 0.628 1.883 0.000 -2.510 -0.000 0.000
4098 4096 4099 4100 3 0.628 1.883 0.000 -2.510 -0.000 0.000
4098 4096 4099 4101 3 0.628 1.883 0.000 -2.510 -0.000 0.000
4098 4096 4099 4102 3 0.628 1.883 0.000 -2.510 -0.000 0.000
4099 4102 4105 4106 3 0.628 1.883 0.000 -2.510 -0.000 0.000
4099 4102 4105 4107 3 0.628 1.883 0.000 -2.510 -0.000 0.000
4099 4102 4105 4108 3 2.301 -1.464 0.837 -1.674 -0.000 0.000
4100 4099 4102 4103 3 0.628 1.883 0.000 -2.510 -0.000 0.000
4100 4099 4102 4104 3 0.628 1.883 0.000 -2.510 -0.000 0.000
4100 4099 4102 4105 3 0.628 1.883 0.000 -2.510 -0.000 0.000
4101 4099 4102 4103 3 0.628 1.883 0.000 -2.510 -0.000 0.000
4101 4099 4102 4104 3 0.628 1.883 0.000 -2.510 -0.000 0.000
4101 4099 4102 4105 3 0.628 1.883 0.000 -2.510 -0.000 0.000
4102 4105 4108 4109 3 0.628 1.883 0.000 -2.510 -0.000 0.000
4102 4105 4108 4110 3 0.628 1.883 0.000 -2.510 -0.000 0.000
4102 4105 4108 4111 3 2.301 -1.464 0.837 -1.674 -0.000 0.000
4103 4102 4105 4106 3 0.628 1.883 0.000 -2.510 -0.000 0.000
4103 4102 4105 4107 3 0.628 1.883 0.000 -2.510 -0.000 0.000
4103 4102 4105 4108 3 0.628 1.883 0.000 -2.510 -0.000 0.000
4104 4102 4105 4106 3 0.628 1.883 0.000 -2.510 -0.000 0.000
4104 4102 4105 4107 3 0.628 1.883 0.000 -2.510 -0.000 0.000
4104 4102 4105 4108 3 0.628 1.883 0.000 -2.510 -0.000 0.000
4105 4108 4111 4112 3 0.628 1.883 0.000 -2.510 -0.000 0.000
4105 4108 4111 4113 3 0.628 1.883 0.000 -2.510 -0.000 0.000
4105 4108 4111 4114 3 2.301 -1.464 0.837 -1.674 -0.000 0.000
4106 4105 4108 4109 3 0.628 1.883 0.000 -2.510 -0.000 0.000
4106 4105 4108 4110 3 0.628 1.883 0.000 -2.510 -0.000 0.000
4106 4105 4108 4111 3 0.628 1.883 0.000 -2.510 -0.000 0.000
4107 4105 4108 4109 3 0.628 1.883 0.000 -2.510 -0.000 0.000
4107 4105 4108 4110 3 0.628 1.883 0.000 -2.510 -0.000 0.000
4107 4105 4108 4111 3 0.628 1.883 0.000 -2.510 -0.000 0.000
4108 4111 4114 4115 3 0.628 1.883 0.000 -2.510 -0.000 0.000
4108 4111 4114 4116 3 0.628 1.883 0.000 -2.510 -0.000 0.000
4108 4111 4114 4117 3 2.301 -1.464 0.837 -1.674 -0.000 0.000
4109 4108 4111 4112 3 0.628 1.883 0.000 -2.510 -0.000 0.000
4109 4108 4111 4113 3 0.628 1.883 0.000 -2.510 -0.000 0.000
4109 4108 4111 4114 3 0.628 1.883 0.000 -2.510 -0.000 0.000
4110 4108 4111 4112 3 0.628 1.883 0.000 -2.510 -0.000 0.000
4110 4108 4111 4113 3 0.628 1.883 0.000 -2.510 -0.000 0.000
4110 4108 4111 4114 3 0.628 1.883 0.000 -2.510 -0.000 0.000
4111 4114 4117 4118 3 0.628 1.883 0.000 -2.510 -0.000 0.000
4111 4114 4117 4119 3 0.628 1.883 0.000 -2.510 -0.000 0.000
4111 4114 4117 4120 3 0.628 1.883 0.000 -2.510 -0.000 0.000
4112 4111 4114 4115 3 0.628 1.883 0.000 -2.510 -0.000 0.000
4112 4111 4114 4116 3 0.628 1.883 0.000 -2.510 -0.000 0.000
4112 4111 4114 4117 3 0.628 1.883 0.000 -2.510 -0.000 0.000
4113 4111 4114 4115 3 0.628 1.883 0.000 -2.510 -0.000 0.000
4113 4111 4114 4116 3 0.628 1.883 0.000 -2.510 -0.000 0.000
4113 4111 4114 4117 3 0.628 1.883 0.000 -2.510 -0.000 0.000
4115 4114 4117 4118 3 0.628 1.883 0.000 -2.510 -0.000 0.000
4115 4114 4117 4119 3 0.628 1.883 0.000 -2.510 -0.000 0.000
4115 4114 4117 4120 3 0.628 1.883 0.000 -2.510 -0.000 0.000
4116 4114 4117 4118 3 0.628 1.883 0.000 -2.510 -0.000 0.000
4116 4114 4117 4119 3 0.628 1.883 0.000 -2.510 -0.000 0.000
4116 4114 4117 4120 3 0.628 1.883 0.000 -2.510 -0.000 0.000
4121 4122 4125 4126 3 -0.778 -2.335 0.000 3.113 -0.000 0.000
4121 4122 4125 4129 3 -0.778 -2.335 0.000 3.113 -0.000 0.000
4122 4125 4126 4127 3 58.576 0.000 -58.576 -0.000 -0.000 0.000
4122 4125 4126 4128 3 58.576 0.000 -58.576 -0.000 -0.000 0.000
4122 4125 4126 4187 3 2.928800 -1.464400 0.209200 -1.673600 0.000000 0.000000
4122 4125 4129 4130 3 1.789 -5.052 -0.962 4.226 -0.000 0.000
4122 4125 4129 4131 3 1.789 -5.052 -0.962 4.226 -0.000 0.000
4123 4122 4125 4126 3 -0.778 -2.335 0.000 3.113 -0.000 0.000
4123 4122 4125 4129 3 -0.778 -2.335 0.000 3.113 -0.000 0.000
4124 4122 4125 4126 3 -0.778 -2.335 0.000 3.113 -0.000 0.000
4124 4122 4125 4129 3 -0.778 -2.335 0.000 3.113 -0.000 0.000
4126 4122 4125 4129 4 180.000 10.460 2
4125 4126 4187 4188 3 0.627600 1.882800 0.000000 -2.510400 0.000000 0.000000
4125 4126 4187 4189 3 0.627600 1.882800 0.000000 -2.510400 0.000000 0.000000
4125 4126 4187 4190 3 0.627600 1.882800 0.000000 -2.510400 0.000000 0.000000
4125 4129 4131 4132 3 31.206 -9.768 -21.439 -0.000 -0.000 0.000
4126 4125 4129 4130 3 30.334 -5.230 -25.104 -0.000 -0.000 0.000
4126 4125 4129 4131 3 -5.858 -6.694 12.552 -0.000 -0.000 0.000
4127 4125 4126 4128 4 180.000 10.460 2
4129 4125 4126 4127 3 58.576 0.000 -58.576 -0.000 -0.000 0.000
4129 4125 4126 4128 3 58.576 0.000 -58.576 -0.000 -0.000 0.000
4129 4125 4126 4187 3 2.928800 -1.464400 0.209200 -1.673600 0.000000 0.000000
4130 4125 4129 4131 4 180.000 43.932 2
4127 4126 4187 4188 3 0.627600 1.882800 0.000000 -2.510400 0.000000 0.000000
4127 4126 4187 4189 3 0.627600 1.882800 0.000000 -2.510400 0.000000 0.000000
4127 4126 4187 4190 3 0.627600 1.882800 0.000000 -2.510400 0.000000 0.000000
4128 4126 4187 4188 3 0.627600 1.882800 0.000000 -2.510400 0.000000 0.000000
4128 4126 4187 4189 3 0.627600 1.882800 0.000000 -2.510400 0.000000 0.000000
4128 4126 4187 4190 3 0.627600 1.882800 0.000000 -2.510400 0.000000 0.000000
4129 4131 4132 4133 3 0.414 1.243 0.000 -1.657 -0.000 0.000
4129 4131 4132 4134 3 0.414 1.243 0.000 -1.657 -0.000 0.000
4129 4131 4132 4135 3 -2.197 5.201 0.527 -3.531 -0.000 0.000
4130 4129 4131 4132 3 21.439 0.000 -21.439 -0.000 -0.000 0.000
4131 4132 4135 4136 3 0.979 2.937 0.000 -3.916 -0.000 0.000
4131 4132 4135 4137 3 0.979 2.937 0.000 -3.916 -0.000 0.000
4131 4132 4135 4138 3 2.874 0.582 2.092 -5.548 -0.000 0.000
4132 4135 4138 4139 3 0.628 1.883 0.000 -2.510 -0.000 0.000
4132 4135 4138 4140 3 0.628 1.883 0.000 -2.510 -0.000 0.000
4132 4135 4138 4141 3 2.301 -1.464 0.837 -1.674 -0.000 0.000
4133 4132 4135 4136 3 0.628 1.883 0.000 -2.510 -0.000 0.000
4133 4132 4135 4137 3 0.628 1.883 0.000 -2.510 -0.000 0.000
4133 4132 4135 4138 3 0.628 1.883 0.000 -2.510 -0.000 0.000
4134 4132 4135 4136 3 0.628 1.883 0.000 -2.510 -0.000 0.000
4134 4132 4135 4137 3 0.628 1.883 0.000 -2.510 -0.000 0.000
4134 4132 4135 4138 3 0.628 1.883 0.000 -2.510 -0.000 0.000
4135 4138 4141 4142 3 0.628 1.883 0.000 -2.510 -0.000 0.000
4135 4138 4141 4143 3 0.628 1.883 0.000 -2.510 -0.000 0.000
4135 4138 4141 4144 3 2.301 -1.464 0.837 -1.674 -0.000 0.000
4136 4135 4138 4139 3 0.628 1.883 0.000 -2.510 -0.000 0.000
4136 4135 4138 4140 3 0.628 1.883 0.000 -2.510 -0.000 0.000
4136 4135 4138 4141 3 0.628 1.883 0.000 -2.510 -0.000 0.000
4137 4135 4138 4139 3 0.628 1.883 0.000 -2.510 -0.000 0.000
4137 4135 4138 4140 3 0.628 1.883 0.000 -2.510 -0.000 0.000
4137 4135 4138 4141 3 0.628 1.883 0.000 -2.510 -0.000 0.000
4138 4141 4144 4145 3 0.628 1.883 0.000 -2.510 -0.000 0.000
4138 4141 4144 4146 3 0.628 1.883 0.000 -2.510 -0.000 0.000
4138 4141 4144 4147 3 2.301 -1.464 0.837 -1.674 -0.000 0.000
4139 4138 4141 4142 3 0.628 1.883 0.000 -2.510 -0.000 0.000
4139 4138 4141 4143 3 0.628 1.883 0.000 -2.510 -0.000 0.000
4139 4138 4141 4144 3 0.628 1.883 0.000 -2.510 -0.000 0.000
4140 4138 4141 4142 3 0.628 1.883 0.000 -2.510 -0.000 0.000
4140 4138 4141 4143 3 0.628 1.883 0.000 -2.510 -0.000 0.000
4140 4138 4141 4144 3 0.628 1.883 0.000 -2.510 -0.000 0.000
4141 4144 4147 4148 3 0.628 1.883 0.000 -2.510 -0.000 0.000
4141 4144 4147 4149 3 0.628 1.883 0.000 -2.510 -0.000 0.000
4141 4144 4147 4150 3 2.301 -1.464 0.837 -1.674 -0.000 0.000
4142 4141 4144 4145 3 0.628 1.883 0.000 -2.510 -0.000 0.000
4142 4141 4144 4146 3 0.628 1.883 0.000 -2.510 -0.000 0.000
4142 4141 4144 4147 3 0.628 1.883 0.000 -2.510 -0.000 0.000
4143 4141 4144 4145 3 0.628 1.883 0.000 -2.510 -0.000 0.000
4143 4141 4144 4146 3 0.628 1.883 0.000 -2.510 -0.000 0.000
4143 4141 4144 4147 3 0.628 1.883 0.000 -2.510 -0.000 0.000
4144 4147 4150 4151 3 0.628 1.883 0.000 -2.510 -0.000 0.000
4144 4147 4150 4152 3 0.628 1.883 0.000 -2.510 -0.000 0.000
4144 4147 4150 4153 3 2.301 -1.464 0.837 -1.674 -0.000 0.000
4145 4144 4147 4148 3 0.628 1.883 0.000 -2.510 -0.000 0.000
4145 4144 4147 4149 3 0.628 1.883 0.000 -2.510 -0.000 0.000
4145 4144 4147 4150 3 0.628 1.883 0.000 -2.510 -0.000 0.000
4146 4144 4147 4148 3 0.628 1.883 0.000 -2.510 -0.000 0.000
4146 4144 4147 4149 3 0.628 1.883 0.000 -2.510 -0.000 0.000
4146 4144 4147 4150 3 0.628 1.883 0.000 -2.510 -0.000 0.000
4147 4150 4153 4154 3 0.628 1.883 0.000 -2.510 -0.000 0.000
4147 4150 4153 4155 3 0.628 1.883 0.000 -2.510 -0.000 0.000
4147 4150 4153 4156 3 2.301 -1.464 0.837 -1.674 -0.000 0.000
4148 4147 4150 4151 3 0.628 1.883 0.000 -2.510 -0.000 0.000
4148 4147 4150 4152 3 0.628 1.883 0.000 -2.510 -0.000 0.000
4148 4147 4150 4153 3 0.628 1.883 0.000 -2.510 -0.000 0.000
4149 4147 4150 4151 3 0.628 1.883 0.000 -2.510 -0.000 0.000
4149 4147 4150 4152 3 0.628 1.883 0.000 -2.510 -0.000 0.000
4149 4147 4150 4153 3 0.628 1.883 0.000 -2.510 -0.000 0.000
4150 4153 4156 4157 3 0.628 1.883 0.000 -2.510 -0.000 0.000
4150 4153 4156 4158 3 0.628 1.883 0.000 -2.510 -0.000 0.000
4150 4153 4156 4159 3 2.301 -1.464 0.837 -1.674 -0.000 0.000
4151 4150 4153 4154 3 0.628 1.883 0.000 -2.510 -0.000 0.000
4151 4150 4153 4155 3 0.628 1.883 0.000 -2.510 -0.000 0.000
4151 4150 4153 4156 3 0.628 1.883 0.000 -2.510 -0.000 0.000
4152 4150 4153 4154 3 0.628 1.883 0.000 -2.510 -0.000 0.000
4152 4150 4153 4155 3 0.628 1.883 0.000 -2.510 -0.000 0.000
4152 4150 4153 4156 3 0.628 1.883 0.000 -2.510 -0.000 0.000
4153 4156 4159 4160 3 0.628 1.883 0.000 -2.510 -0.000 0.000
4153 4156 4159 4161 3 0.628 1.883 0.000 -2.510 -0.000 0.000
4153 4156 4159 4162 3 2.301 -1.464 0.837 -1.674 -0.000 0.000
4154 4153 4156 4157 3 0.628 1.883 0.000 -2.510 -0.000 0.000
4154 4153 4156 4158 3 0.628 1.883 0.000 -2.510 -0.000 0.000
4154 4153 4156 4159 3 0.628 1.883 0.000 -2.510 -0.000 0.000
4155 4153 4156 4157 3 0.628 1.883 0.000 -2.510 -0.000 0.000
4155 4153 4156 4158 3 0.628 1.883 0.000 -2.510 -0.000 0.000
4155 4153 4156 4159 3 0.628 1.883 0.000 -2.510 -0.000 0.000
4156 4159 4162 4163 3 0.628 1.883 0.000 -2.510 -0.000 0.000
4156 4159 4162 4164 3 0.628 1.883 0.000 -2.510 -0.000 0.000
4156 4159 4162 4165 3 2.301 -1.464 0.837 -1.674 -0.000 0.000
4157 4156 4159 4160 3 0.628 1.883 0.000 -2.510 -0.000 0.000
4157 4156 4159 4161 3 0.628 1.883 0.000 -2.510 -0.000 0.000
4157 4156 4159 4162 3 0.628 1.883 0.000 -2.510 -0.000 0.000
4158 4156 4159 4160 3 0.628 1.883 0.000 -2.510 -0.000 0.000
4158 4156 4159 4161 3 0.628 1.883 0.000 -2.510 -0.000 0.000
4158 4156 4159 4162 3 0.628 1.883 0.000 -2.510 -0.000 0.000
4159 4162 4165 4166 3 0.628 1.883 0.000 -2.510 -0.000 0.000
4159 4162 4165 4167 3 0.628 1.883 0.000 -2.510 -0.000 0.000
4159 4162 4165 4168 3 2.301 -1.464 0.837 -1.674 -0.000 0.000
4160 4159 4162 4163 3 0.628 1.883 0.000 -2.510 -0.000 0.000
4160 4159 4162 4164 3 0.628 1.883 0.000 -2.510 -0.000 0.000
4160 4159 4162 4165 3 0.628 1.883 0.000 -2.510 -0.000 0.000
4161 4159 4162 4163 3 0.628 1.883 0.000 -2.510 -0.000 0.000
4161 4159 4162 4164 3 0.628 1.883 0.000 -2.510 -0.000 0.000
4161 4159 4162 4165 3 0.628 1.883 0.000 -2.510 -0.000 0.000
4162 4165 4168 4169 3 0.628 1.883 0.000 -2.510 -0.000 0.000
4162 4165 4168 4170 3 0.628 1.883 0.000 -2.510 -0.000 0.000
4162 4165 4168 4171 3 2.301 -1.464 0.837 -1.674 -0.000 0.000
4163 4162 4165 4166 3 0.628 1.883 0.000 -2.510 -0.000 0.000
4163 4162 4165 4167 3 0.628 1.883 0.000 -2.510 -0.000 0.000
4163 4162 4165 4168 3 0.628 1.883 0.000 -2.510 -0.000 0.000
4164 4162 4165 4166 3 0.628 1.883 0.000 -2.510 -0.000 0.000
4164 4162 4165 4167 3 0.628 1.883 0.000 -2.510 -0.000 0.000
4164 4162 4165 4168 3 0.628 1.883 0.000 -2.510 -0.000 0.000
4165 4168 4171 4172 3 0.628 1.883 0.000 -2.510 -0.000 0.000
4165 4168 4171 4173 3 0.628 1.883 0.000 -2.510 -0.000 0.000
4165 4168 4171 4174 3 2.301 -1.464 0.837 -1.674 -0.000 0.000
4166 4165 4168 4169 3 0.628 1.883 0.000 -2.510 -0.000 0.000
4166 4165 4168 4170 3 0.628 1.883 0.000 -2.510 -0.000 0.000
4166 4165 4168 4171 3 0.628 1.883 0.000 -2.510 -0.000 0.000
4167 4165 4168 4169 3 0.628 1.883 0.000 -2.510 -0.000 0.000
4167 4165 4168 4170 3 0.628 1.883 0.000 -2.510 -0.000 0.000
4167 4165 4168 4171 3 0.628 1.883 0.000 -2.510 -0.000 0.000
4168 4171 4174 4175 3 0.628 1.883 0.000 -2.510 -0.000 0.000
4168 4171 4174 4176 3 0.628 1.883 0.000 -2.510 -0.000 0.000
4168 4171 4174 4177 3 2.301 -1.464 0.837 -1.674 -0.000 0.000
4169 4168 4171 4172 3 0.628 1.883 0.000 -2.510 -0.000 0.000
4169 4168 4171 4173 3 0.628 1.883 0.000 -2.510 -0.000 0.000
4169 4168 4171 4174 3 0.628 1.883 0.000 -2.510 -0.000 0.000
4170 4168 4171 4172 3 0.628 1.883 0.000 -2.510 -0.000 0.000
4170 4168 4171 4173 3 0.628 1.883 0.000 -2.510 -0.000 0.000
4170 4168 4171 4174 3 0.628 1.883 0.000 -2.510 -0.000 0.000
4171 4174 4177 4178 3 0.628 1.883 0.000 -2.510 -0.000 0.000
4171 4174 4177 4179 3 0.628 1.883 0.000 -2.510 -0.000 0.000
4171 4174 4177 4180 3 2.301 -1.464 0.837 -1.674 -0.000 0.000
4172 4171 4174 4175 3 0.628 1.883 0.000 -2.510 -0.000 0.000
4172 4171 4174 4176 3 0.628 1.883 0.000 -2.510 -0.000 0.000
4172 4171 4174 4177 3 0.628 1.883 0.000 -2.510 -0.000 0.000
4173 4171 4174 4175 3 0.628 1.883 0.000 -2.510 -0.000 0.000
4173 4171 4174 4176 3 0.628 1.883 0.000 -2.510 -0.000 0.000
4173 4171 4174 4177 3 0.628 1.883 0.000 -2.510 -0.000 0.000
4174 4177 4180 4181 3 0.628 1.883 0.000 -2.510 -0.000 0.000
4174 4177 4180 4182 3 0.628 1.883 0.000 -2.510 -0.000 0.000
4174 4177 4180 4183 3 2.301 -1.464 0.837 -1.674 -0.000 0.000
4175 4174 4177 4178 3 0.628 1.883 0.000 -2.510 -0.000 0.000
4175 4174 4177 4179 3 0.628 1.883 0.000 -2.510 -0.000 0.000
4175 4174 4177 4180 3 0.628 1.883 0.000 -2.510 -0.000 0.000
4176 4174 4177 4178 3 0.628 1.883 0.000 -2.510 -0.000 0.000
4176 4174 4177 4179 3 0.628 1.883 0.000 -2.510 -0.000 0.000
4176 4174 4177 4180 3 0.628 1.883 0.000 -2.510 -0.000 0.000
4177 4180 4183 4184 3 0.628 1.883 0.000 -2.510 -0.000 0.000
4177 4180 4183 4185 3 0.628 1.883 0.000 -2.510 -0.000 0.000
4177 4180 4183 4186 3 0.628 1.883 0.000 -2.510 -0.000 0.000
4178 4177 4180 4181 3 0.628 1.883 0.000 -2.510 -0.000 0.000
4178 4177 4180 4182 3 0.628 1.883 0.000 -2.510 -0.000 0.000
4178 4177 4180 4183 3 0.628 1.883 0.000 -2.510 -0.000 0.000
4179 4177 4180 4181 3 0.628 1.883 0.000 -2.510 -0.000 0.000
4179 4177 4180 4182 3 0.628 1.883 0.000 -2.510 -0.000 0.000
4179 4177 4180 4183 3 0.628 1.883 0.000 -2.510 -0.000 0.000
4181 4180 4183 4184 3 0.628 1.883 0.000 -2.510 -0.000 0.000
4181 4180 4183 4185 3 0.628 1.883 0.000 -2.510 -0.000 0.000
4181 4180 4183 4186 3 0.628 1.883 0.000 -2.510 -0.000 0.000
4182 4180 4183 4184 3 0.628 1.883 0.000 -2.510 -0.000 0.000
4182 4180 4183 4185 3 0.628 1.883 0.000 -2.510 -0.000 0.000
4182 4180 4183 4186 3 0.628 1.883 0.000 -2.510 -0.000 0.000

