Single PAMA block polymer
 4190
    1CH3n    C1    1   1.961   1.907   2.581
    1CH3n    H2    2   2.057   1.958   2.594
    1CH3n    H3    3   1.914   1.966   2.502
    1CH3n    H4    4   1.907   1.922   2.674
    2MMA    H00    5   2.395   1.635   2.631
    2MMA    C01    6   2.330   1.711   2.674
    2MMA    H02    7   2.309   1.682   2.777
    2MMA    H03    8   2.386   1.805   2.677
    2MMA    O04    9   2.213   1.727   2.593
    2MMA    C05   10   2.088   1.729   2.646
    2MMA    O06   11   2.067   1.705   2.765
    2MMA    C07   12   1.981   1.756   2.546
    2MMA    C08   13   1.868   1.677   2.569
    2MMA    H09   14   1.851   1.666   2.675
    2MMA    H0A   15   1.901   1.583   2.529
    2MMA    C0B   16   2.041   1.764   2.404
    2MMA    H0C   17   2.136   1.816   2.399
    2MMA    H0D   18   2.056   1.665   2.360
    2MMA    H0E   19   1.977   1.822   2.337
    3MMA    H00   20   1.787   1.901   2.129
    3MMA    C01   21   1.783   1.796   2.156
    3MMA    H02   22   1.720   1.744   2.084
    3MMA    H03   23   1.885   1.757   2.145
    3MMA    O04   24   1.734   1.782   2.290
    3MMA    C05   25   1.751   1.667   2.360
    3MMA    O06   26   1.797   1.565   2.308
    3MMA    C07   27   1.715   1.681   2.503
    3MMA    C08   28   1.651   1.574   2.570
    3MMA    H09   29   1.710   1.485   2.552
    3MMA    H0A   30   1.636   1.608   2.672
    3MMA    C0B   31   1.668   1.823   2.541
    3MMA    H0C   32   1.564   1.841   2.513
    3MMA    H0D   33   1.680   1.845   2.647
    3MMA    H0E   34   1.721   1.901   2.486
    4MMA    H00   35   1.685   1.186   2.297
    4MMA    C01   36   1.696   1.290   2.327
    4MMA    H02   37   1.800   1.306   2.354
    4MMA    H03   38   1.681   1.352   2.238
    4MMA    O04   39   1.611   1.325   2.437
    4MMA    C05   40   1.519   1.424   2.423
    4MMA    O06   41   1.476   1.456   2.312
    4MMA    C07   42   1.495   1.502   2.547
    4MMA    C08   43   1.467   1.431   2.666
    4MMA    H09   44   1.464   1.513   2.736
    4MMA    H0A   45   1.551   1.363   2.667
    4MMA    C0B   46   1.411   1.626   2.518
    4MMA    H0C   47   1.444   1.676   2.427
    4MMA    H0D   48   1.307   1.598   2.500
    4MMA    H0E   49   1.413   1.699   2.599
    5MMA    H00   50   1.294   1.320   3.177
    5MMA    C01   51   1.284   1.392   3.095
    5MMA    H02   52   1.178   1.415   3.082
    5MMA    H03   53   1.335   1.484   3.120
    5MMA    O04   54   1.336   1.337   2.975
    5MMA    C05   55   1.317   1.407   2.863
    5MMA    O06   56   1.271   1.521   2.863
    5MMA    C07   57   1.341   1.328   2.742
    5MMA    C08   58   1.212   1.293   2.695
    5MMA    H09   59   1.143   1.374   2.711
    5MMA    H0A   60   1.222   1.269   2.590
    5MMA    C0B   61   1.431   1.205   2.761
    5MMA    H0C   62   1.520   1.228   2.820
    5MMA    H0D   63   1.381   1.128   2.821
    5MMA    H0E   64   1.461   1.162   2.666
    6MMA    H00   65   0.910   1.192   2.356
    6MMA    C01   66   0.898   1.233   2.456
    6MMA    H02   67   0.907   1.342   2.449
    6MMA    H03   68   0.797   1.210   2.490
    6MMA    O04   69   0.997   1.181   2.543
    6MMA    C05   70   0.987   1.200   2.676
    6MMA    O06   71   0.886   1.248   2.728
    6MMA    C07   72   1.108   1.156   2.749
    6MMA    C08   73   1.078   1.129   2.888
    6MMA    H09   74   1.013   1.203   2.931
    6MMA    H0A   75   1.177   1.122   2.929
    6MMA    C0B   76   1.182   1.042   2.675
    6MMA    H0C   77   1.241   1.070   2.587
    6MMA    H0D   78   1.250   0.987   2.739
    6MMA    H0E   79   1.110   0.973   2.634
    7MMA    H00   80   1.345   0.774   3.158
    7MMA    C01   81   1.291   0.869   3.168
    7MMA    H02   82   1.252   0.876   3.269
    7MMA    H03   83   1.361   0.951   3.153
    7MMA    O04   84   1.187   0.877   3.072
    7MMA    C05   85   1.100   0.979   3.081
    7MMA    O06   86   1.103   1.060   3.173
    7MMA    C07   87   1.004   0.983   2.969
    7MMA    C08   88   0.872   0.981   3.027
    7MMA    H09   89   0.804   1.017   2.951
    7MMA    H0A   90   0.869   1.037   3.119
    7MMA    C0B   91   1.022   0.875   2.865
    7MMA    H0C   92   1.126   0.857   2.838
    7MMA    H0D   93   0.995   0.778   2.908
    7MMA    H0E   94   0.961   0.893   2.776
    8MMA    H00   95   0.591   1.094   3.399
    8MMA    C01   96   0.556   1.030   3.317
    8MMA    H02   97   0.493   0.952   3.360
    8MMA    H03   98   0.494   1.091   3.251
    8MMA    O04   99   0.667   0.972   3.250
    8MMA    C05  100   0.651   0.918   3.126
    8MMA    O06  101   0.550   0.940   3.059
    8MMA    C07  102   0.769   0.843   3.079
    8MMA    C08  103   0.810   0.751   3.181
    8MMA    H09  104   0.810   0.796   3.279
    8MMA    H0A  105   0.904   0.713   3.145
    8MMA    C0B  106   0.740   0.778   2.943
    8MMA    H0C  107   0.640   0.735   2.946
    8MMA    H0D  108   0.738   0.846   2.858
    8MMA    H0E  109   0.807   0.695   2.919
    9MMA    H00  110   0.508   0.437   2.893
    9MMA    C01  111   0.606   0.419   2.937
    9MMA    H02  112   0.606   0.317   2.977
    9MMA    H03  113   0.682   0.427   2.859
    9MMA    O04  114   0.627   0.512   3.040
    9MMA    C05  115   0.749   0.525   3.097
    9MMA    O06  116   0.852   0.482   3.046
    9MMA    C07  117   0.743   0.593   3.227
    9MMA    C08  118   0.618   0.570   3.293
    9MMA    H09  119   0.534   0.591   3.229
    9MMA    H0A  120   0.614   0.625   3.386
    9MMA    C0B  121   0.856   0.555   3.324
    9MMA    H0C  122   0.955   0.554   3.279
    9MMA    H0D  123   0.859   0.620   3.412
    9MMA    H0E  124   0.843   0.454   3.363
   10MMA    H00  125   0.622   0.136   3.694
   10MMA    C01  126   0.654   0.238   3.673
   10MMA    H02  127   0.611   0.302   3.749
   10MMA    H03  128   0.763   0.241   3.681
   10MMA    O04  129   0.612   0.274   3.542
   10MMA    C05  130   0.614   0.401   3.495
   10MMA    O06  131   0.658   0.492   3.566
   10MMA    C07  132   0.566   0.410   3.354
   10MMA    C08  133   0.426   0.401   3.347
   10MMA    H09  134   0.394   0.430   3.247
   10MMA    H0A  135   0.389   0.461   3.428
   10MMA    C0B  136   0.635   0.299   3.270
   10MMA    H0C  137   0.679   0.222   3.333
   10MMA    H0D  138   0.565   0.244   3.207
   10MMA    H0E  139   0.722   0.323   3.208
   11MMA    H00  140   0.595  -0.029   3.496
   11MMA    C01  141   0.521  -0.048   3.418
   11MMA    H02  142   0.566  -0.113   3.342
   11MMA    H03  143   0.439  -0.104   3.463
   11MMA    O04  144   0.473   0.074   3.359
   11MMA    C05  145   0.392   0.151   3.432
   11MMA    O06  146   0.374   0.128   3.553
   11MMA    C07  147   0.324   0.261   3.359
   11MMA    C08  148   0.275   0.231   3.231
   11MMA    H09  149   0.200   0.306   3.211
   11MMA    H0A  150   0.357   0.222   3.162
   11MMA    C0B  151   0.214   0.316   3.454
   11MMA    H0C  152   0.253   0.339   3.553
   11MMA    H0D  153   0.163   0.405   3.417
   11MMA    H0E  154   0.137   0.241   3.475
   12MMA    H00  155   0.417  -0.154   2.970
   12MMA    C01  156   0.473  -0.079   3.027
   12MMA    H02  157   0.526  -0.129   3.108
   12MMA    H03  158   0.545  -0.032   2.960
   12MMA    O04  159   0.384   0.020   3.076
   12MMA    C05  160   0.290  -0.011   3.168
   12MMA    O06  161   0.289  -0.120   3.228
   12MMA    C07  162   0.187   0.094   3.183
   12MMA    C08  163   0.120   0.094   3.058
   12MMA    H09  164   0.058   0.006   3.061
   12MMA    H0A  165   0.189   0.083   2.975
   12MMA    C0B  166   0.095   0.056   3.300
   12MMA    H0C  167   0.022   0.134   3.323
   12MMA    H0D  168   0.038  -0.034   3.276
   12MMA    H0E  169   0.151   0.030   3.390
   13MMA    H00  170  -0.305  -0.032   3.213
   13MMA    C01  171  -0.291   0.065   3.167
   13MMA    H02  172  -0.368   0.079   3.091
   13MMA    H03  173  -0.306   0.141   3.244
   13MMA    O04  174  -0.162   0.075   3.107
   13MMA    C05  175  -0.116   0.197   3.073
   13MMA    O06  176  -0.174   0.300   3.104
   13MMA    C07  177   0.007   0.192   2.992
   13MMA    C08  178  -0.018   0.167   2.857
   13MMA    H09  179  -0.074   0.253   2.825
   13MMA    H0A  180   0.079   0.179   2.811
   13MMA    C0B  181   0.079   0.329   3.002
   13MMA    H0C  182   0.053   0.384   3.092
   13MMA    H0D  183   0.188   0.320   2.995
   13MMA    H0E  184   0.052   0.397   2.920
   14MMA    H00  185  -0.216  -0.293   3.020
   14MMA    C01  186  -0.127  -0.236   2.997
   14MMA    H02  187  -0.098  -0.181   3.087
   14MMA    H03  188  -0.046  -0.304   2.970
   14MMA    O04  189  -0.155  -0.143   2.895
   14MMA    C05  190  -0.055  -0.078   2.835
   14MMA    O06  191   0.061  -0.120   2.834
   14MMA    C07  192  -0.097   0.047   2.771
   14MMA    C08  193  -0.234   0.076   2.768
   14MMA    H09  194  -0.248   0.181   2.749
   14MMA    H0A  195  -0.285   0.039   2.856
   14MMA    C0B  196  -0.018   0.067   2.640
   14MMA    H0C  197   0.089   0.050   2.651
   14MMA    H0D  198  -0.046  -0.008   2.567
   14MMA    H0E  199  -0.031   0.168   2.599
   15MMA    H00  200  -0.632   0.356   2.614
   15MMA    C01  201  -0.589   0.301   2.698
   15MMA    H02  202  -0.554   0.373   2.772
   15MMA    H03  203  -0.669   0.243   2.742
   15MMA    O04  204  -0.481   0.221   2.652
   15MMA    C05  205  -0.461   0.098   2.705
   15MMA    O06  206  -0.534   0.050   2.791
   15MMA    C07  207  -0.342   0.031   2.648
   15MMA    C08  208  -0.359  -0.105   2.634
   15MMA    H09  209  -0.414  -0.145   2.718
   15MMA    H0A  210  -0.265  -0.154   2.615
   15MMA    C0B  211  -0.290   0.094   2.521
   15MMA    H0C  212  -0.248   0.192   2.545
   15MMA    H0D  213  -0.216   0.035   2.465
   15MMA    H0E  214  -0.373   0.107   2.453
   16MMA    H00  215  -0.710  -0.514   2.454
   16MMA    C01  216  -0.621  -0.490   2.511
   16MMA    H02  217  -0.642  -0.506   2.617
   16MMA    H03  218  -0.541  -0.557   2.481
   16MMA    O04  219  -0.584  -0.354   2.488
   16MMA    C05  220  -0.483  -0.299   2.556
   16MMA    O06  221  -0.411  -0.369   2.627
   16MMA    C07  222  -0.448  -0.165   2.502
   16MMA    C08  223  -0.555  -0.076   2.477
   16MMA    H09  224  -0.627  -0.120   2.544
   16MMA    H0A  225  -0.516  -0.086   2.377
   16MMA    C0B  226  -0.340  -0.196   2.393
   16MMA    H0C  227  -0.251  -0.248   2.430
   16MMA    H0D  228  -0.383  -0.264   2.319
   16MMA    H0E  229  -0.310  -0.107   2.338
   17MMA    H00  230  -1.018  -0.101   2.281
   17MMA    C01  231  -0.959  -0.010   2.280
   17MMA    H02  232  -0.885  -0.026   2.202
   17MMA    H03  233  -1.021   0.072   2.243
   17MMA    O04  234  -0.908   0.021   2.410
   17MMA    C05  235  -0.779   0.025   2.453
   17MMA    O06  236  -0.756   0.080   2.560
   17MMA    C07  237  -0.675  -0.030   2.362
   17MMA    C08  238  -0.620   0.067   2.274
   17MMA    H09  239  -0.568   0.136   2.339
   17MMA    H0A  240  -0.570   0.022   2.190
   17MMA    C0B  241  -0.718  -0.174   2.317
   17MMA    H0C  242  -0.802  -0.193   2.250
   17MMA    H0D  243  -0.638  -0.234   2.273
   17MMA    H0E  244  -0.755  -0.227   2.405
   18MMA    H00  245  -0.851  -0.118   1.905
   18MMA    C01  246  -0.859  -0.013   1.934
   18MMA    H02  247  -0.858   0.048   1.844
   18MMA    H03  248  -0.960  -0.001   1.975
   18MMA    O04  249  -0.758   0.029   2.029
   18MMA    C05  250  -0.779   0.150   2.087
   18MMA    O06  251  -0.865   0.223   2.042
   18MMA    C07  252  -0.693   0.198   2.198
   18MMA    C08  253  -0.613   0.296   2.138
   18MMA    H09  254  -0.610   0.285   2.031
   18MMA    H0A  255  -0.658   0.390   2.168
   18MMA    C0B  256  -0.786   0.267   2.303
   18MMA    H0C  257  -0.887   0.226   2.306
   18MMA    H0D  258  -0.745   0.272   2.404
   18MMA    H0E  259  -0.816   0.369   2.279
   19MMA    H00  260  -0.193   0.009   2.217
   19MMA    C01  261  -0.253   0.055   2.138
   19MMA    H02  262  -0.186   0.081   2.056
   19MMA    H03  263  -0.324  -0.019   2.101
   19MMA    O04  264  -0.321   0.168   2.188
   19MMA    C05  265  -0.386   0.245   2.100
   19MMA    O06  266  -0.374   0.229   1.978
   19MMA    C07  267  -0.462   0.354   2.163
   19MMA    C08  268  -0.467   0.474   2.092
   19MMA    H09  269  -0.482   0.450   1.988
   19MMA    H0A  270  -0.529   0.547   2.142
   19MMA    C0B  271  -0.456   0.369   2.314
   19MMA    H0C  272  -0.429   0.281   2.371
   19MMA    H0D  273  -0.372   0.438   2.330
   19MMA    H0E  274  -0.542   0.416   2.360
   20MMA    H00  275  -0.254   0.867   1.749
   20MMA    C01  276  -0.345   0.825   1.791
   20MMA    H02  277  -0.395   0.903   1.848
   20MMA    H03  278  -0.411   0.796   1.708
   20MMA    O04  279  -0.313   0.714   1.873
   20MMA    C05  280  -0.408   0.660   1.954
   20MMA    O06  281  -0.527   0.691   1.945
   20MMA    C07  282  -0.346   0.580   2.064
   20MMA    C08  283  -0.317   0.677   2.159
   20MMA    H09  284  -0.402   0.740   2.178
   20MMA    H0A  285  -0.248   0.737   2.102
   20MMA    C0B  286  -0.229   0.502   2.001
   20MMA    H0C  287  -0.142   0.566   1.993
   20MMA    H0D  288  -0.199   0.413   2.056
   20MMA    H0E  289  -0.254   0.469   1.900
   21MMA    H00  290  -0.300   1.096   2.210
   21MMA    C01  291  -0.239   1.049   2.287
   21MMA    H02  292  -0.135   1.071   2.266
   21MMA    H03  293  -0.265   1.096   2.382
   21MMA    O04  294  -0.270   0.911   2.294
   21MMA    C05  295  -0.174   0.814   2.292
   21MMA    O06  296  -0.056   0.841   2.271
   21MMA    C07  297  -0.233   0.677   2.300
   21MMA    C08  298  -0.143   0.571   2.289
   21MMA    H09  299  -0.055   0.600   2.234
   21MMA    H0A  300  -0.191   0.480   2.259
   21MMA    C0B  301  -0.351   0.679   2.402
   21MMA    H0C  302  -0.395   0.777   2.416
   21MMA    H0D  303  -0.439   0.620   2.379
   21MMA    H0E  304  -0.318   0.662   2.505
   22MMA    H00  305   0.020   0.875   2.555
   22MMA    C01  306   0.099   0.801   2.549
   22MMA    H02  307   0.190   0.848   2.510
   22MMA    H03  308   0.120   0.765   2.649
   22MMA    O04  309   0.059   0.693   2.465
   22MMA    C05  310  -0.037   0.612   2.510
   22MMA    O06  311  -0.098   0.637   2.615
   22MMA    C07  312  -0.072   0.501   2.419
   22MMA    C08  313   0.021   0.403   2.378
   22MMA    H09  314   0.004   0.315   2.437
   22MMA    H0A  315  -0.016   0.360   2.286
   22MMA    C0B  316  -0.182   0.422   2.491
   22MMA    H0C  317  -0.272   0.473   2.527
   22MMA    H0D  318  -0.213   0.342   2.425
   22MMA    H0E  319  -0.141   0.380   2.583
   23MMA    H00  320   0.362   0.675   2.611
   23MMA    C01  321   0.422   0.596   2.569
   23MMA    H02  322   0.521   0.636   2.544
   23MMA    H03  323   0.435   0.522   2.648
   23MMA    O04  324   0.357   0.535   2.456
   23MMA    C05  325   0.235   0.484   2.480
   23MMA    O06  326   0.189   0.491   2.595
   23MMA    C07  327   0.184   0.388   2.379
   23MMA    C08  328   0.219   0.397   2.242
   23MMA    H09  329   0.272   0.491   2.234
   23MMA    H0A  330   0.138   0.426   2.176
   23MMA    C0B  331   0.225   0.262   2.461
   23MMA    H0C  332   0.175   0.167   2.444
   23MMA    H0D  333   0.333   0.246   2.453
   23MMA    H0E  334   0.212   0.267   2.569
   24MMA    H00  335   0.027   0.182   2.180
   24MMA    C01  336   0.061   0.096   2.238
   24MMA    H02  337   0.016   0.102   2.336
   24MMA    H03  338   0.017   0.006   2.195
   24MMA    O04  339   0.202   0.071   2.243
   24MMA    C05  340   0.310   0.153   2.216
   24MMA    O06  341   0.419   0.115   2.260
   24MMA    C07  342   0.297   0.281   2.144
   24MMA    C08  343   0.236   0.271   2.017
   24MMA    H09  344   0.131   0.246   2.025
   24MMA    H0A  345   0.262   0.356   1.957
   24MMA    C0B  346   0.432   0.358   2.147
   24MMA    H0C  347   0.520   0.300   2.118
   24MMA    H0D  348   0.432   0.448   2.085
   24MMA    H0E  349   0.460   0.387   2.249
   25MMA    H00  350   0.643   0.042   1.896
   25MMA    C01  351   0.608   0.114   1.970
   25MMA    H02  352   0.594   0.060   2.064
   25MMA    H03  353   0.687   0.187   1.986
   25MMA    O04  354   0.486   0.180   1.934
   25MMA    C05  355   0.393   0.114   1.866
   25MMA    O06  356   0.423   0.023   1.788
   25MMA    C07  357   0.253   0.147   1.900
   25MMA    C08  358   0.179   0.184   1.785
   25MMA    H09  359   0.249   0.197   1.703
   25MMA    H0A  360   0.129   0.278   1.798
   25MMA    C0B  361   0.224   0.012   1.968
   25MMA    H0C  362   0.131   0.005   2.025
   25MMA    H0D  363   0.221  -0.071   1.896
   25MMA    H0E  364   0.304  -0.021   2.034
   26MMA    H00  365   0.299  -0.207   1.565
   26MMA    C01  366   0.242  -0.135   1.506
   26MMA    H02  367   0.302  -0.103   1.421
   26MMA    H03  368   0.153  -0.184   1.467
   26MMA    O04  369   0.207  -0.023   1.584
   26MMA    C05  370   0.108  -0.032   1.675
   26MMA    O06  371   0.068  -0.140   1.721
   26MMA    C07  372   0.055   0.101   1.710
   26MMA    C08  373   0.012   0.162   1.590
   26MMA    H09  374   0.035   0.099   1.505
   26MMA    H0A  375   0.084   0.240   1.567
   26MMA    C0B  376  -0.046   0.088   1.824
   26MMA    H0C  377  -0.139   0.042   1.788
   26MMA    H0D  378  -0.018   0.013   1.898
   26MMA    H0E  379  -0.066   0.182   1.875
   27MMA    H00  380  -0.026   0.577   1.783
   27MMA    C01  381   0.004   0.533   1.688
   27MMA    H02  382  -0.017   0.607   1.610
   27MMA    H03  383   0.111   0.516   1.691
   27MMA    O04  384  -0.063   0.409   1.667
   27MMA    C05  385  -0.098   0.367   1.542
   27MMA    O06  386  -0.092   0.442   1.445
   27MMA    C07  387  -0.136   0.223   1.540
   27MMA    C08  388  -0.174   0.179   1.409
   27MMA    H09  389  -0.086   0.152   1.351
   27MMA    H0A  390  -0.206   0.265   1.352
   27MMA    C0B  391  -0.245   0.218   1.649
   27MMA    H0C  392  -0.216   0.257   1.747
   27MMA    H0D  393  -0.326   0.286   1.624
   27MMA    H0E  394  -0.288   0.119   1.666
   28MMA    H00  395  -0.384  -0.243   1.640
   28MMA    C01  396  -0.333  -0.147   1.651
   28MMA    H02  397  -0.375  -0.097   1.738
   28MMA    H03  398  -0.228  -0.165   1.672
   28MMA    O04  399  -0.354  -0.065   1.537
   28MMA    C05  400  -0.256  -0.041   1.445
   28MMA    O06  401  -0.156  -0.112   1.433
   28MMA    C07  402  -0.291   0.071   1.356
   28MMA    C08  403  -0.276   0.052   1.215
   28MMA    H09  404  -0.293   0.144   1.162
   28MMA    H0A  405  -0.188  -0.007   1.192
   28MMA    C0B  406  -0.419   0.147   1.399
   28MMA    H0C  407  -0.508   0.087   1.378
   28MMA    H0D  408  -0.434   0.159   1.506
   28MMA    H0E  409  -0.432   0.244   1.351
   29MMA    H00  410  -0.733  -0.192   1.204
   29MMA    C01  411  -0.709  -0.107   1.140
   29MMA    H02  412  -0.675  -0.146   1.044
   29MMA    H03  413  -0.801  -0.050   1.126
   29MMA    O04  414  -0.610  -0.030   1.204
   29MMA    C05  415  -0.515   0.037   1.135
   29MMA    O06  416  -0.532   0.155   1.107
   29MMA    C07  417  -0.388  -0.037   1.120
   29MMA    C08  418  -0.361  -0.080   0.986
   29MMA    H09  419  -0.278  -0.150   0.985
   29MMA    H0A  420  -0.451  -0.136   0.965
   29MMA    C0B  421  -0.393  -0.165   1.207
   29MMA    H0C  422  -0.294  -0.207   1.228
   29MMA    H0D  423  -0.441  -0.150   1.303
   29MMA    H0E  424  -0.452  -0.244   1.160
   30MMA    H00  425  -0.786   0.054   0.925
   30MMA    C01  426  -0.709   0.102   0.864
   30MMA    H02  427  -0.686   0.196   0.914
   30MMA    H03  428  -0.753   0.127   0.768
   30MMA    O04  429  -0.594   0.018   0.849
   30MMA    C05  430  -0.474   0.077   0.826
   30MMA    O06  431  -0.463   0.200   0.815
   30MMA    C07  432  -0.357  -0.013   0.828
   30MMA    C08  433  -0.355  -0.115   0.727
   30MMA    H09  434  -0.259  -0.163   0.727
   30MMA    H0A  435  -0.442  -0.178   0.742
   30MMA    C0B  436  -0.227   0.065   0.845
   30MMA    H0C  437  -0.140  -0.000   0.852
   30MMA    H0D  438  -0.212   0.133   0.761
   30MMA    H0E  439  -0.230   0.128   0.933
   31MMA    H00  440  -0.358   0.290   0.417
   31MMA    C01  441  -0.394   0.266   0.517
   31MMA    H02  442  -0.320   0.297   0.590
   31MMA    H03  443  -0.485   0.323   0.536
   31MMA    O04  444  -0.422   0.128   0.529
   31MMA    C05  445  -0.322   0.038   0.529
   31MMA    O06  446  -0.205   0.068   0.506
   31MMA    C07  447  -0.372  -0.098   0.553
   31MMA    C08  448  -0.299  -0.197   0.479
   31MMA    H09  449  -0.330  -0.290   0.526
   31MMA    H0A  450  -0.194  -0.171   0.479
   31MMA    C0B  451  -0.525  -0.109   0.541
   31MMA    H0C  452  -0.579  -0.050   0.615
   31MMA    H0D  453  -0.557  -0.067   0.446
   31MMA    H0E  454  -0.561  -0.212   0.548
   32MMA    H00  455  -0.741  -0.203   0.231
   32MMA    C01  456  -0.676  -0.283   0.268
   32MMA    H02  457  -0.715  -0.320   0.362
   32MMA    H03  458  -0.680  -0.364   0.195
   32MMA    O04  459  -0.543  -0.234   0.281
   32MMA    C05  460  -0.447  -0.317   0.322
   32MMA    O06  461  -0.474  -0.428   0.369
   32MMA    C07  462  -0.311  -0.262   0.315
   32MMA    C08  463  -0.278  -0.182   0.201
   32MMA    H09  464  -0.351  -0.103   0.214
   32MMA    H0A  465  -0.173  -0.159   0.199
   32MMA    C0B  466  -0.203  -0.371   0.332
   32MMA    H0C  467  -0.187  -0.424   0.238
   32MMA    H0D  468  -0.107  -0.330   0.361
   32MMA    H0E  469  -0.230  -0.446   0.406
   33MMA    H00  470  -0.435  -0.533  -0.031
   33MMA    C01  471  -0.446  -0.466   0.055
   33MMA    H02  472  -0.511  -0.516   0.126
   33MMA    H03  473  -0.348  -0.455   0.102
   33MMA    O04  474  -0.504  -0.341   0.013
   33MMA    C05  475  -0.450  -0.213   0.020
   33MMA    O06  476  -0.528  -0.118   0.020
   33MMA    C07  477  -0.302  -0.194   0.025
   33MMA    C08  478  -0.253  -0.274  -0.086
   33MMA    H09  479  -0.303  -0.223  -0.167
   33MMA    H0A  480  -0.289  -0.376  -0.091
   33MMA    C0B  481  -0.270  -0.045  -0.005
   33MMA    H0C  482  -0.277   0.026   0.078
   33MMA    H0D  483  -0.168  -0.028  -0.039
   33MMA    H0E  484  -0.336  -0.004  -0.082
   34MMA    H00  485  -0.053   0.115  -0.255
   34MMA    C01  486  -0.049   0.035  -0.329
   34MMA    H02  487  -0.097   0.070  -0.421
   34MMA    H03  488   0.055   0.016  -0.353
   34MMA    O04  489  -0.115  -0.082  -0.282
   34MMA    C05  490  -0.051  -0.165  -0.197
   34MMA    O06  491   0.049  -0.129  -0.134
   34MMA    C07  492  -0.115  -0.296  -0.185
   34MMA    C08  493  -0.147  -0.352  -0.311
   34MMA    H09  494  -0.184  -0.453  -0.304
   34MMA    H0A  495  -0.206  -0.284  -0.371
   34MMA    C0B  496  -0.048  -0.395  -0.093
   34MMA    H0C  497   0.058  -0.368  -0.090
   34MMA    H0D  498  -0.083  -0.395   0.011
   34MMA    H0E  499  -0.054  -0.498  -0.128
   35MMA    H00  500  -0.310  -0.324  -0.780
   35MMA    C01  501  -0.229  -0.390  -0.751
   35MMA    H02  502  -0.268  -0.492  -0.753
   35MMA    H03  503  -0.151  -0.383  -0.827
   35MMA    O04  504  -0.176  -0.352  -0.624
   35MMA    C05  505  -0.117  -0.444  -0.544
   35MMA    O06  506  -0.128  -0.564  -0.567
   35MMA    C07  507  -0.033  -0.384  -0.436
   35MMA    C08  508   0.064  -0.473  -0.391
   35MMA    H09  509   0.027  -0.574  -0.394
   35MMA    H0A  510   0.092  -0.438  -0.293
   35MMA    C0B  511   0.015  -0.246  -0.483
   35MMA    H0C  512  -0.067  -0.176  -0.500
   35MMA    H0D  513   0.088  -0.200  -0.417
   35MMA    H0E  514   0.060  -0.255  -0.582
   36MMA    H00  515   0.296  -0.257  -0.820
   36MMA    C01  516   0.300  -0.361  -0.788
   36MMA    H02  517   0.244  -0.421  -0.859
   36MMA    H03  518   0.405  -0.392  -0.792
   36MMA    O04  519   0.251  -0.372  -0.655
   36MMA    C05  520   0.221  -0.492  -0.599
   36MMA    O06  521   0.214  -0.592  -0.671
   36MMA    C07  522   0.221  -0.490  -0.450
   36MMA    C08  523   0.257  -0.616  -0.396
   36MMA    H09  524   0.224  -0.693  -0.464
   36MMA    H0A  525   0.213  -0.629  -0.298
   36MMA    C0B  526   0.289  -0.359  -0.397
   36MMA    H0C  527   0.287  -0.273  -0.464
   36MMA    H0D  528   0.248  -0.316  -0.305
   36MMA    H0E  529   0.396  -0.368  -0.379
   37MMA    H00  530   0.226  -1.075  -0.462
   37MMA    C01  531   0.322  -1.025  -0.453
   37MMA    H02  532   0.380  -1.082  -0.380
   37MMA    H03  533   0.374  -1.031  -0.548
   37MMA    O04  534   0.309  -0.889  -0.411
   37MMA    C05  535   0.421  -0.818  -0.390
   37MMA    O06  536   0.531  -0.873  -0.396
   37MMA    C07  537   0.408  -0.675  -0.350
   37MMA    C08  538   0.446  -0.666  -0.213
   37MMA    H09  539   0.521  -0.590  -0.199
   37MMA    H0A  540   0.488  -0.760  -0.182
   37MMA    C0B  541   0.503  -0.606  -0.451
   37MMA    H0C  542   0.604  -0.599  -0.412
   37MMA    H0D  543   0.512  -0.665  -0.542
   37MMA    H0E  544   0.476  -0.509  -0.493
   38MMA    H00  545   0.495  -0.902  -0.038
   38MMA    C01  546   0.400  -0.954  -0.048
   38MMA    H02  547   0.424  -1.042  -0.108
   38MMA    H03  548   0.368  -0.989   0.050
   38MMA    O04  549   0.294  -0.886  -0.115
   38MMA    C05  550   0.247  -0.756  -0.098
   38MMA    O06  551   0.127  -0.736  -0.117
   38MMA    C07  552   0.345  -0.646  -0.080
   38MMA    C08  553   0.402  -0.649   0.047
   38MMA    H09  554   0.434  -0.745   0.084
   38MMA    H0A  555   0.474  -0.568   0.053
   38MMA    C0B  556   0.313  -0.501  -0.118
   38MMA    H0C  557   0.337  -0.426  -0.043
   38MMA    H0D  558   0.372  -0.455  -0.198
   38MMA    H0E  559   0.207  -0.494  -0.140
   39MMA    H00  560   0.200  -0.178   0.182
   39MMA    C01  561   0.171  -0.270   0.130
   39MMA    H02  562   0.064  -0.282   0.140
   39MMA    H03  563   0.195  -0.253   0.024
   39MMA    O04  564   0.244  -0.382   0.178
   39MMA    C05  565   0.210  -0.508   0.140
   39MMA    O06  566   0.105  -0.532   0.084
   39MMA    C07  567   0.306  -0.610   0.183
   39MMA    C08  568   0.246  -0.725   0.238
   39MMA    H09  569   0.237  -0.794   0.156
   39MMA    H0A  570   0.313  -0.767   0.313
   39MMA    C0B  571   0.412  -0.547   0.276
   39MMA    H0C  572   0.494  -0.616   0.298
   39MMA    H0D  573   0.457  -0.458   0.234
   39MMA    H0E  574   0.367  -0.516   0.371
   40MMA    H00  575  -0.274  -0.708   0.064
   40MMA    C01  576  -0.179  -0.760   0.063
   40MMA    H02  577  -0.198  -0.867   0.075
   40MMA    H03  578  -0.129  -0.746  -0.033
   40MMA    O04  579  -0.095  -0.715   0.168
   40MMA    C05  580   0.015  -0.787   0.196
   40MMA    O06  581   0.040  -0.893   0.137
   40MMA    C07  582   0.092  -0.737   0.311
   40MMA    C08  583   0.106  -0.829   0.413
   40MMA    H09  584   0.146  -0.920   0.371
   40MMA    H0A  585   0.158  -0.778   0.492
   40MMA    C0B  586   0.058  -0.595   0.364
   40MMA    H0C  587  -0.002  -0.538   0.293
   40MMA    H0D  588  -0.004  -0.595   0.454
   40MMA    H0E  589   0.145  -0.536   0.390
   41MMA    H00  590  -0.064  -1.341   0.520
   41MMA    C01  591  -0.090  -1.261   0.451
   41MMA    H02  592  -0.052  -1.286   0.352
   41MMA    H03  593  -0.199  -1.254   0.445
   41MMA    O04  594  -0.037  -1.139   0.497
   41MMA    C05  595  -0.054  -1.027   0.425
   41MMA    O06  596  -0.106  -1.029   0.314
   41MMA    C07  597  -0.015  -0.906   0.500
   41MMA    C08  598  -0.122  -0.835   0.554
   41MMA    H09  599  -0.099  -0.730   0.565
   41MMA    H0A  600  -0.118  -0.857   0.659
   41MMA    C0B  601   0.078  -0.951   0.618
   41MMA    H0C  602   0.027  -1.018   0.687
   41MMA    H0D  603   0.167  -1.005   0.584
   41MMA    H0E  604   0.111  -0.867   0.679
   42MMA    H00  605  -0.284  -0.891   0.960
   42MMA    C01  606  -0.309  -0.808   0.894
   42MMA    H02  607  -0.403  -0.763   0.929
   42MMA    H03  608  -0.230  -0.734   0.901
   42MMA    O04  609  -0.321  -0.856   0.762
   42MMA    C05  610  -0.324  -0.771   0.656
   42MMA    O06  611  -0.332  -0.649   0.671
   42MMA    C07  612  -0.287  -0.838   0.529
   42MMA    C08  613  -0.342  -0.966   0.516
   42MMA    H09  614  -0.333  -1.025   0.606
   42MMA    H0A  615  -0.298  -1.009   0.427
   42MMA    C0B  616  -0.295  -0.749   0.404
   42MMA    H0C  617  -0.202  -0.702   0.375
   42MMA    H0D  618  -0.331  -0.804   0.317
   42MMA    H0E  619  -0.365  -0.667   0.421
   43MMA    H00  620  -0.639  -1.000   0.894
   43MMA    C01  621  -0.688  -1.001   0.797
   43MMA    H02  622  -0.738  -1.097   0.782
   43MMA    H03  623  -0.766  -0.924   0.798
   43MMA    O04  624  -0.597  -0.968   0.693
   43MMA    C05  625  -0.556  -1.058   0.600
   43MMA    O06  626  -0.568  -1.179   0.617
   43MMA    C07  627  -0.506  -0.990   0.479
   43MMA    C08  628  -0.498  -1.065   0.361
   43MMA    H09  629  -0.446  -1.158   0.382
   43MMA    H0A  630  -0.461  -0.996   0.287
   43MMA    C0B  631  -0.569  -0.849   0.471
   43MMA    H0C  632  -0.678  -0.859   0.481
   43MMA    H0D  633  -0.546  -0.781   0.553
   43MMA    H0E  634  -0.550  -0.796   0.378
   44MMA    H00  635  -0.648  -0.769   0.143
   44MMA    C01  636  -0.740  -0.822   0.166
   44MMA    H02  637  -0.810  -0.750   0.210
   44MMA    H03  638  -0.781  -0.862   0.073
   44MMA    O04  639  -0.700  -0.922   0.255
   44MMA    C05  640  -0.732  -1.048   0.241
   44MMA    O06  641  -0.844  -1.085   0.204
   44MMA    C07  642  -0.617  -1.134   0.268
   44MMA    C08  643  -0.564  -1.190   0.151
   44MMA    H09  644  -0.481  -1.250   0.187
   44MMA    H0A  645  -0.632  -1.265   0.117
   44MMA    C0B  646  -0.673  -1.249   0.355
   44MMA    H0C  647  -0.728  -1.322   0.296
   44MMA    H0D  648  -0.596  -1.307   0.406
   44MMA    H0E  649  -0.744  -1.214   0.430
   45MMA    H00  650  -0.946  -1.218  -0.061
   45MMA    C01  651  -0.877  -1.140  -0.093
   45MMA    H02  652  -0.887  -1.126  -0.201
   45MMA    H03  653  -0.908  -1.047  -0.044
   45MMA    O04  654  -0.744  -1.175  -0.058
   45MMA    C05  655  -0.647  -1.082  -0.063
   45MMA    O06  656  -0.666  -0.969  -0.110
   45MMA    C07  657  -0.522  -1.123   0.003
   45MMA    C08  658  -0.459  -1.231  -0.057
   45MMA    H09  659  -0.527  -1.305  -0.094
   45MMA    H0A  660  -0.386  -1.253   0.020
   45MMA    C0B  661  -0.439  -1.003   0.045
   45MMA    H0C  662  -0.500  -0.932   0.101
   45MMA    H0D  663  -0.350  -1.032   0.101
   45MMA    H0E  664  -0.411  -0.944  -0.041
   46MMA    H00  665  -0.016  -1.306  -0.234
   46MMA    C01  666  -0.034  -1.368  -0.146
   46MMA    H02  667  -0.052  -1.471  -0.180
   46MMA    H03  668   0.055  -1.366  -0.083
   46MMA    O04  669  -0.145  -1.317  -0.077
   46MMA    C05  670  -0.266  -1.349  -0.122
   46MMA    O06  671  -0.313  -1.460  -0.108
   46MMA    C07  672  -0.344  -1.234  -0.177
   46MMA    C08  673  -0.382  -1.276  -0.305
   46MMA    H09  674  -0.451  -1.359  -0.297
   46MMA    H0A  675  -0.295  -1.322  -0.348
   46MMA    C0B  676  -0.255  -1.110  -0.165
   46MMA    H0C  677  -0.165  -1.121  -0.226
   46MMA    H0D  678  -0.307  -1.019  -0.199
   46MMA    H0E  679  -0.218  -1.094  -0.064
   47MMA    H00  680  -0.746  -0.922  -0.571
   47MMA    C01  681  -0.730  -0.994  -0.492
   47MMA    H02  682  -0.754  -0.948  -0.396
   47MMA    H03  683  -0.799  -1.077  -0.507
   47MMA    O04  684  -0.596  -1.040  -0.492
   47MMA    C05  685  -0.559  -1.137  -0.405
   47MMA    O06  686  -0.643  -1.192  -0.334
   47MMA    C07  687  -0.428  -1.195  -0.438
   47MMA    C08  688  -0.330  -1.106  -0.481
   47MMA    H09  689  -0.275  -1.071  -0.395
   47MMA    H0A  690  -0.372  -1.007  -0.496
   47MMA    C0B  691  -0.468  -1.306  -0.535
   47MMA    H0C  692  -0.565  -1.350  -0.510
   47MMA    H0D  693  -0.480  -1.263  -0.634
   47MMA    H0E  694  -0.399  -1.391  -0.538
   48MMA    H00  695   0.048  -0.877  -0.727
   48MMA    C01  696   0.030  -0.867  -0.620
   48MMA    H02  697   0.111  -0.916  -0.567
   48MMA    H03  698   0.032  -0.761  -0.595
   48MMA    O04  699  -0.097  -0.923  -0.592
   48MMA    C05  700  -0.108  -1.045  -0.538
   48MMA    O06  701  -0.030  -1.087  -0.452
   48MMA    C07  702  -0.216  -1.121  -0.601
   48MMA    C08  703  -0.188  -1.254  -0.623
   48MMA    H09  704  -0.147  -1.300  -0.534
   48MMA    H0A  705  -0.271  -1.298  -0.677
   48MMA    C0B  706  -0.286  -1.044  -0.716
   48MMA    H0C  707  -0.215  -1.024  -0.796
   48MMA    H0D  708  -0.372  -1.097  -0.758
   48MMA    H0E  709  -0.319  -0.944  -0.687
   49MMA    H00  710  -0.382  -1.225  -1.018
   49MMA    C01  711  -0.281  -1.262  -1.035
   49MMA    H02  712  -0.285  -1.343  -1.108
   49MMA    H03  713  -0.226  -1.180  -1.081
   49MMA    O04  714  -0.226  -1.309  -0.911
   49MMA    C05  715  -0.113  -1.254  -0.862
   49MMA    O06  716  -0.054  -1.164  -0.922
   49MMA    C07  717  -0.075  -1.308  -0.729
   49MMA    C08  718  -0.080  -1.448  -0.726
   49MMA    H09  719  -0.073  -1.482  -0.828
   49MMA    H0A  720  -0.182  -1.480  -0.714
   49MMA    C0B  721   0.060  -1.239  -0.696
   49MMA    H0C  722   0.060  -1.132  -0.719
   49MMA    H0D  723   0.090  -1.244  -0.592
   49MMA    H0E  724   0.141  -1.279  -0.757
   50MMA    H00  725   0.318  -1.346  -0.408
   50MMA    C01  726   0.275  -1.446  -0.414
   50MMA    H02  727   0.357  -1.518  -0.416
   50MMA    H03  728   0.218  -1.465  -0.323
   50MMA    O04  729   0.199  -1.464  -0.533
   50MMA    C05  730   0.065  -1.479  -0.528
   50MMA    O06  731  -0.001  -1.450  -0.429
   50MMA    C07  732   0.015  -1.553  -0.643
   50MMA    C08  733  -0.072  -1.657  -0.610
   50MMA    H09  734  -0.145  -1.620  -0.539
   50MMA    H0A  735  -0.108  -1.709  -0.697
   50MMA    C0B  736   0.123  -1.581  -0.750
   50MMA    H0C  737   0.086  -1.638  -0.836
   50MMA    H0D  738   0.169  -1.490  -0.788
   50MMA    H0E  739   0.206  -1.637  -0.708
   51MMA    H00  740   0.297  -1.904  -0.808
   51MMA    C01  741   0.223  -1.956  -0.747
   51MMA    H02  742   0.156  -2.009  -0.814
   51MMA    H03  743   0.275  -2.030  -0.686
   51MMA    O04  744   0.156  -1.864  -0.661
   51MMA    C05  745   0.027  -1.882  -0.628
   51MMA    O06  746  -0.038  -1.974  -0.677
   51MMA    C07  747  -0.022  -1.789  -0.521
   51MMA    C08  748  -0.126  -1.855  -0.454
   51MMA    H09  749  -0.094  -1.954  -0.427
   51MMA    H0A  750  -0.199  -1.871  -0.533
   51MMA    C0B  751   0.098  -1.754  -0.434
   51MMA    H0C  752   0.178  -1.705  -0.489
   51MMA    H0D  753   0.071  -1.690  -0.350
   51MMA    H0E  754   0.144  -1.846  -0.399
   52MMA    H00  755  -0.608  -1.729  -0.450
   52MMA    C01  756  -0.584  -1.806  -0.377
   52MMA    H02  757  -0.654  -1.794  -0.294
   52MMA    H03  758  -0.602  -1.903  -0.422
   52MMA    O04  759  -0.451  -1.786  -0.331
   52MMA    C05  760  -0.350  -1.870  -0.364
   52MMA    O06  761  -0.371  -1.980  -0.416
   52MMA    C07  762  -0.216  -1.822  -0.318
   52MMA    C08  763  -0.195  -1.893  -0.198
   52MMA    H09  764  -0.212  -1.998  -0.213
   52MMA    H0A  765  -0.277  -1.857  -0.137
   52MMA    C0B  766  -0.226  -1.671  -0.312
   52MMA    H0C  767  -0.281  -1.648  -0.221
   52MMA    H0D  768  -0.129  -1.620  -0.309
   52MMA    H0E  769  -0.286  -1.627  -0.392
   53MMA    H00  770   0.177  -1.552  -0.011
   53MMA    C01  771   0.107  -1.625   0.029
   53MMA    H02  772   0.167  -1.707   0.070
   53MMA    H03  773   0.051  -1.580   0.111
   53MMA    O04  774   0.024  -1.677  -0.073
   53MMA    C05  775  -0.088  -1.744  -0.039
   53MMA    O06  776  -0.176  -1.692   0.029
   53MMA    C07  777  -0.081  -1.887  -0.077
   53MMA    C08  778  -0.125  -1.977   0.022
   53MMA    H09  779  -0.221  -1.946   0.061
   53MMA    H0A  780  -0.113  -2.078  -0.014
   53MMA    C0B  781   0.043  -1.929  -0.156
   53MMA    H0C  782   0.094  -1.843  -0.200
   53MMA    H0D  783   0.121  -1.972  -0.093
   53MMA    H0E  784   0.022  -2.000  -0.235
   54MMA    H00  785   0.251  -2.248  -0.017
   54MMA    C01  786   0.248  -2.173   0.062
   54MMA    H02  787   0.286  -2.218   0.154
   54MMA    H03  788   0.313  -2.090   0.034
   54MMA    O04  789   0.114  -2.132   0.083
   54MMA    C05  790   0.089  -2.017   0.148
   54MMA    O06  791   0.174  -1.932   0.170
   54MMA    C07  792  -0.054  -2.002   0.175
   54MMA    C08  793  -0.110  -2.118   0.231
   54MMA    H09  794  -0.077  -2.208   0.181
   54MMA    H0A  795  -0.217  -2.099   0.235
   54MMA    C0B  796  -0.089  -1.868   0.244
   54MMA    H0C  797  -0.031  -1.786   0.201
   54MMA    H0D  798  -0.194  -1.841   0.243
   54MMA    H0E  799  -0.056  -1.860   0.348
   55MMA    H00  800  -0.097  -1.800   0.617
   55MMA    C01  801  -0.046  -1.896   0.634
   55MMA    H02  802   0.061  -1.878   0.625
   55MMA    H03  803  -0.067  -1.926   0.737
   55MMA    O04  804  -0.097  -1.994   0.544
   55MMA    C05  805  -0.015  -2.067   0.464
   55MMA    O06  806   0.107  -2.051   0.466
   55MMA    C07  807  -0.084  -2.176   0.390
   55MMA    C08  808  -0.004  -2.292   0.408
   55MMA    H09  809   0.036  -2.288   0.508
   55MMA    H0A  810   0.086  -2.280   0.350
   55MMA    C0B  811  -0.229  -2.183   0.443
   55MMA    H0C  812  -0.291  -2.253   0.386
   55MMA    H0D  813  -0.233  -2.208   0.549
   55MMA    H0E  814  -0.281  -2.087   0.437
   56MMA    H00  815  -0.301  -2.357   0.070
   56MMA    C01  816  -0.210  -2.416   0.082
   56MMA    H02  817  -0.225  -2.512   0.034
   56MMA    H03  818  -0.131  -2.364   0.028
   56MMA    O04  819  -0.180  -2.432   0.220
   56MMA    C05  820  -0.053  -2.456   0.261
   56MMA    O06  821   0.038  -2.475   0.180
   56MMA    C07  822  -0.038  -2.457   0.407
   56MMA    C08  823   0.070  -2.531   0.463
   56MMA    H09  824   0.070  -2.532   0.571
   56MMA    H0A  825   0.158  -2.495   0.412
   56MMA    C0B  826  -0.165  -2.471   0.493
   56MMA    H0C  827  -0.163  -2.403   0.578
   56MMA    H0D  828  -0.259  -2.458   0.439
   56MMA    H0E  829  -0.172  -2.568   0.541
   57MMA    H00  830   0.264  -2.921   0.126
   57MMA    C01  831   0.210  -2.896   0.218
   57MMA    H02  832   0.110  -2.939   0.210
   57MMA    H03  833   0.259  -2.946   0.301
   57MMA    O04  834   0.204  -2.755   0.236
   57MMA    C05  835   0.220  -2.703   0.360
   57MMA    O06  836   0.332  -2.672   0.401
   57MMA    C07  837   0.096  -2.700   0.441
   57MMA    C08  838   0.104  -2.801   0.542
   57MMA    H09  839   0.002  -2.833   0.562
   57MMA    H0A  840   0.165  -2.873   0.491
   57MMA    C0B  841  -0.028  -2.738   0.355
   57MMA    H0C  842  -0.022  -2.705   0.251
   57MMA    H0D  843  -0.040  -2.846   0.346
   57MMA    H0E  844  -0.124  -2.704   0.393
   58MMA    H00  845  -0.225  -2.932   0.817
   58MMA    C01  846  -0.159  -2.848   0.839
   58MMA    H02  847  -0.190  -2.764   0.776
   58MMA    H03  848  -0.171  -2.821   0.944
   58MMA    O04  849  -0.026  -2.887   0.809
   58MMA    C05  850   0.071  -2.797   0.778
   58MMA    O06  851   0.067  -2.680   0.814
   58MMA    C07  852   0.174  -2.855   0.688
   58MMA    C08  853   0.306  -2.828   0.730
   58MMA    H09  854   0.303  -2.773   0.822
   58MMA    H0A  855   0.331  -2.747   0.663
   58MMA    C0B  856   0.150  -3.008   0.675
   58MMA    H0C  857   0.046  -3.038   0.662
   58MMA    H0D  858   0.197  -3.055   0.589
   58MMA    H0E  859   0.188  -3.058   0.764
   59MMA    H00  860   0.497  -2.876   0.352
   59MMA    C01  861   0.494  -2.975   0.399
   59MMA    H02  862   0.465  -3.048   0.323
   59MMA    H03  863   0.596  -2.996   0.431
   59MMA    O04  864   0.402  -2.970   0.509
   59MMA    C05  865   0.439  -3.025   0.628
   59MMA    O06  866   0.479  -3.141   0.629
   59MMA    C07  867   0.446  -2.931   0.744
   59MMA    C08  868   0.497  -3.006   0.866
   59MMA    H09  869   0.596  -3.039   0.838
   59MMA    H0A  870   0.421  -3.081   0.849
   59MMA    C0B  871   0.545  -2.835   0.664
   59MMA    H0C  872   0.508  -2.791   0.571
   59MMA    H0D  873   0.577  -2.737   0.699
   59MMA    H0E  874   0.637  -2.886   0.636
   60EH     H00  875   0.531  -3.261   1.105
   60EH     C01  876   0.516  -3.197   1.019
   60EH     H02  877   0.603  -3.211   0.954
   60EH     H03  878   0.428  -3.239   0.971
   60EH     C04  879   0.500  -3.047   1.051
   60EH     C05  880   0.592  -3.044   1.176
   60EH     H06  881   0.535  -3.102   1.247
   60EH     H07  882   0.679  -3.105   1.156
   60EH     C08  883   0.359  -3.017   1.070
   60EH     O09  884   0.297  -2.929   1.010
   60EH     O0A  885   0.297  -3.110   1.136
   60EH     C0B  886   0.161  -3.119   1.103
   60EH     H0C  887   0.149  -3.123   0.995
   60EH     H0D  888   0.109  -3.029   1.134
   60EH     C0E  889   0.107  -3.244   1.165
   60EH     H0F  890   0.152  -3.254   1.264
   60EH     C0G  891  -0.045  -3.227   1.182
   60EH     H0H  892  -0.063  -3.158   1.263
   60EH     H0I  893  -0.089  -3.322   1.212
   60EH     C0J  894  -0.115  -3.172   1.056
   60EH     H0K  895  -0.087  -3.070   1.032
   60EH     H0M  896  -0.089  -3.232   0.969
   60EH     H0N  897  -0.223  -3.171   1.069
   60EH     C0O  898   0.152  -3.361   1.076
   60EH     H0P  899   0.087  -3.369   0.989
   60EH     H0Q  900   0.251  -3.341   1.036
   60EH     C0R  901   0.162  -3.493   1.151
   60EH     H0S  902   0.071  -3.508   1.209
   60EH     H0T  903   0.245  -3.489   1.221
   60EH     C0U  904   0.182  -3.609   1.053
   60EH     H0V  905   0.104  -3.606   0.976
   60EH     H0W  906   0.277  -3.599   1.001
   60EH     C0X  907   0.177  -3.744   1.124
   60EH     H0Y  908   0.180  -3.826   1.052
   60EH     H0Z  909   0.085  -3.754   1.182
   60EH     H10  910   0.261  -3.755   1.193
   61ST     H00  911   0.461  -2.967   1.375
   61ST     C01  912   0.562  -2.938   1.406
   61ST     H02  913   0.581  -3.012   1.484
   61ST     H03  914   0.552  -2.841   1.456
   61ST     C04  915   0.677  -2.926   1.305
   61ST     C05  916   0.736  -2.787   1.292
   61ST     H06  917   0.835  -2.786   1.335
   61ST     H07  918   0.671  -2.718   1.343
   61ST     C08  919   0.785  -2.996   1.380
   61ST     O09  920   0.830  -3.105   1.347
   61ST     O0A  921   0.835  -2.929   1.501
   61ST     C0B  922   0.767  -2.831   1.589
   61ST     H0C  923   0.755  -2.734   1.543
   61ST     H0D  924   0.668  -2.867   1.616
   61ST     C0E  925   0.822  -2.804   1.733
   61ST     H0F  926   0.747  -2.744   1.783
   61ST     H0G  927   0.911  -2.741   1.730
   61ST     C0H  928   0.850  -2.926   1.824
   61ST     H0I  929   0.822  -2.904   1.927
   61ST     H0J  930   0.958  -2.942   1.825
   61ST     C0K  931   0.780  -3.054   1.777
   61ST     H0M  932   0.672  -3.052   1.792
   61ST     H0N  933   0.794  -3.056   1.669
   61ST     C0O  934   0.844  -3.186   1.816
   61ST     H0P  935   0.777  -3.235   1.887
   61ST     H0Q  936   0.938  -3.170   1.869
   61ST     C0R  937   0.872  -3.278   1.693
   61ST     H0S  938   0.904  -3.376   1.727
   61ST     H0T  939   0.958  -3.237   1.641
   61ST     C0U  940   0.759  -3.294   1.587
   61ST     H0V  941   0.795  -3.356   1.505
   61ST     H0W  942   0.739  -3.198   1.539
   61ST     C0X  943   0.621  -3.340   1.633
   61ST     H0Y  944   0.580  -3.269   1.705
   61ST     H0Z  945   0.555  -3.334   1.546
   61ST     C10  946   0.620  -3.484   1.685
   61ST     H11  947   0.527  -3.532   1.657
   61ST     H12  948   0.699  -3.541   1.636
   61ST     C13  949   0.637  -3.490   1.837
   61ST     H14  950   0.652  -3.594   1.867
   61ST     H15  951   0.731  -3.441   1.864
   61ST     C16  952   0.516  -3.432   1.913
   61ST     H17  953   0.442  -3.396   1.841
   61ST     H18  954   0.463  -3.515   1.960
   61ST     C19  955   0.541  -3.316   2.012
   61ST     H1A  956   0.550  -3.225   1.951
   61ST     H1B  957   0.451  -3.299   2.071
   61ST     C1C  958   0.665  -3.319   2.106
   61ST     H1D  959   0.752  -3.365   2.060
   61ST     H1E  960   0.694  -3.215   2.119
   61ST     C1F  961   0.646  -3.376   2.247
   61ST     H1G  962   0.726  -3.334   2.308
   61ST     H1H  963   0.554  -3.339   2.292
   61ST     C1I  964   0.659  -3.529   2.258
   61ST     H1J  965   0.703  -3.556   2.354
   61ST     H1K  966   0.729  -3.565   2.182
   61ST     C1M  967   0.525  -3.604   2.243
   61ST     H1N  968   0.544  -3.710   2.227
   61ST     H1O  969   0.476  -3.568   2.153
   61ST     C1P  970   0.429  -3.585   2.361
   61ST     H1Q  971   0.445  -3.665   2.434
   61ST     H1R  972   0.450  -3.492   2.415
   61ST     C1S  973   0.283  -3.583   2.315
   61ST     H1T  974   0.215  -3.572   2.399
   61ST     H1U  975   0.256  -3.674   2.262
   61ST     H1V  976   0.265  -3.499   2.247
   62ST     H00  977   1.011  -2.739   1.239
   62ST     C01  978   0.958  -2.682   1.163
   62ST     H02  979   1.009  -2.586   1.157
   62ST     H03  980   0.979  -2.727   1.066
   62ST     C04  981   0.806  -2.663   1.184
   62ST     C05  982   0.751  -2.616   1.063
   62ST     H06  983   0.660  -2.564   1.090
   62ST     H07  984   0.825  -2.546   1.026
   62ST     C08  985   0.803  -2.542   1.276
   62ST     O09  986   0.730  -2.443   1.260
   62ST     O0A  987   0.902  -2.532   1.371
   62ST     C0B  988   0.940  -2.401   1.419
   62ST     H0C  989   1.035  -2.374   1.372
   62ST     H0D  990   0.874  -2.321   1.388
   62ST     C0E  991   0.954  -2.386   1.572
   62ST     H0F  992   0.971  -2.281   1.595
   62ST     H0G  993   1.045  -2.437   1.606
   62ST     C0H  994   0.834  -2.436   1.655
   62ST     H0I  995   0.842  -2.400   1.757
   62ST     H0J  996   0.842  -2.544   1.660
   62ST     C0K  997   0.694  -2.403   1.598
   62ST     H0M  998   0.685  -2.452   1.501
   62ST     H0N  999   0.618  -2.450   1.659
   62ST     C0O 1000   0.664  -2.254   1.584
   62ST     H0P 1001   0.757  -2.198   1.566
   62ST     H0Q 1002   0.626  -2.216   1.679
   62ST     C0R 1003   0.566  -2.222   1.470
   62ST     H0S 1004   0.465  -2.255   1.494
   62ST     H0T 1005   0.592  -2.280   1.382
   62ST     C0U 1006   0.569  -2.074   1.426
   62ST     H0V 1007   0.491  -2.056   1.353
   62ST     H0W 1008   0.663  -2.059   1.371
   62ST     C0X 1009   0.564  -1.969   1.539
   62ST     H0Y 1010   0.637  -1.992   1.617
   62ST     H0Z 1011   0.602  -1.876   1.497
   62ST     C10 1012   0.424  -1.941   1.597
   62ST     H11 1013   0.427  -1.847   1.652
   62ST     H12 1014   0.355  -1.924   1.514
   62ST     C13 1015   0.366  -2.049   1.690
   62ST     H14 1016   0.263  -2.021   1.710
   62ST     H15 1017   0.358  -2.143   1.634
   62ST     C16 1018   0.442  -2.065   1.824
   62ST     H17 1019   0.546  -2.035   1.810
   62ST     H18 1020   0.403  -1.990   1.892
   62ST     C19 1021   0.444  -2.201   1.899
   62ST     H1A 1022   0.548  -2.217   1.929
   62ST     H1B 1023   0.392  -2.190   1.994
   62ST     C1C 1024   0.398  -2.333   1.830
   62ST     H1D 1025   0.389  -2.327   1.722
   62ST     H1E 1026   0.480  -2.404   1.844
   62ST     C1F 1027   0.274  -2.400   1.893
   62ST     H1G 1028   0.282  -2.507   1.874
   62ST     H1H 1029   0.277  -2.392   2.002
   62ST     C1I 1030   0.138  -2.355   1.838
   62ST     H1J 1031   0.060  -2.424   1.870
   62ST     H1K 1032   0.140  -2.362   1.729
   62ST     C1M 1033   0.098  -2.212   1.878
   62ST     H1N 1034   0.016  -2.177   1.815
   62ST     H1O 1035   0.182  -2.146   1.856
   62ST     C1P 1036   0.059  -2.195   2.026
   62ST     H1Q 1037  -0.048  -2.210   2.038
   62ST     H1R 1038   0.107  -2.271   2.088
   62ST     C1S 1039   0.100  -2.057   2.079
   62ST     H1T 1040   0.074  -2.046   2.185
   62ST     H1U 1041   0.050  -1.976   2.025
   62ST     H1V 1042   0.207  -2.042   2.071
   63ST     H00 1043   0.492  -2.765   0.910
   63ST     C01 1044   0.536  -2.665   0.911
   63ST     H02 1045   0.482  -2.619   0.828
   63ST     H03 1046   0.486  -2.609   0.991
   63ST     C04 1047   0.694  -2.667   0.914
   63ST     C05 1048   0.766  -2.798   0.861
   63ST     H06 1049   0.677  -2.856   0.843
   63ST     H07 1050   0.820  -2.762   0.775
   63ST     C08 1051   0.671  -2.516   0.865
   63ST     O09 1052   0.709  -2.478   0.755
   63ST     O0A 1053   0.581  -2.408   0.959
   63ST     C0B 1054   0.434  -2.343   0.958
   63ST     H0C 1055   0.368  -2.419   1.000
   63ST     H0D 1056   0.402  -2.337   0.854
   63ST     C0E 1057   0.371  -2.197   1.032
   63ST     H0F 1058   0.439  -2.171   1.113
   63ST     H0G 1059   0.388  -2.117   0.960
   63ST     C0H 1060   0.217  -2.159   1.098
   63ST     H0I 1061   0.222  -2.183   1.204
   63ST     H0J 1062   0.145  -2.232   1.062
   63ST     C0K 1063   0.132  -2.012   1.097
   63ST     H0M 1064   0.197  -1.931   1.063
   63ST     H0N 1065   0.059  -2.021   1.017
   63ST     C0O 1066   0.036  -1.955   1.220
   63ST     H0P 1067   0.094  -1.973   1.310
   63ST     H0Q 1068  -0.049  -2.022   1.232
   63ST     C0R 1069  -0.025  -1.805   1.252
   63ST     H0S 1070   0.046  -1.737   1.300
   63ST     H0T 1071  -0.087  -1.825   1.339
   63ST     C0U 1072  -0.125  -1.712   1.170
   63ST     H0V 1073  -0.183  -1.656   1.243
   63ST     H0W 1074  -0.201  -1.772   1.120
   63ST     C0X 1075  -0.077  -1.599   1.072
   63ST     H0Y 1076  -0.012  -1.638   0.994
   63ST     H0Z 1077  -0.167  -1.569   1.017
   63ST     C10 1078  -0.024  -1.461   1.125
   63ST     H11 1079  -0.022  -1.392   1.041
   63ST     H12 1080  -0.094  -1.416   1.195
   63ST     C13 1081   0.117  -1.456   1.186
   63ST     H14 1082   0.144  -1.352   1.201
   63ST     H15 1083   0.114  -1.498   1.287
   63ST     C16 1084   0.227  -1.520   1.099
   63ST     H17 1085   0.204  -1.505   0.994
   63ST     H18 1086   0.323  -1.470   1.117
   63ST     C19 1087   0.245  -1.670   1.128
   63ST     H1A 1088   0.148  -1.717   1.113
   63ST     H1B 1089   0.302  -1.722   1.050
   63ST     C1C 1090   0.301  -1.701   1.268
   63ST     H1D 1091   0.284  -1.618   1.338
   63ST     H1E 1092   0.246  -1.785   1.311
   63ST     C1F 1093   0.447  -1.743   1.273
   63ST     H1G 1094   0.471  -1.750   1.379
   63ST     H1H 1095   0.455  -1.846   1.236
   63ST     C1I 1096   0.549  -1.648   1.208
   63ST     H1J 1097   0.646  -1.666   1.254
   63ST     H1K 1098   0.523  -1.545   1.234
   63ST     C1M 1099   0.565  -1.660   1.055
   63ST     H1N 1100   0.640  -1.588   1.023
   63ST     H1O 1101   0.476  -1.626   1.003
   63ST     C1P 1102   0.608  -1.800   1.006
   63ST     H1Q 1103   0.715  -1.800   0.986
   63ST     H1R 1104   0.594  -1.877   1.082
   63ST     C1S 1105   0.533  -1.845   0.880
   63ST     H1T 1106   0.568  -1.943   0.846
   63ST     H1U 1107   0.547  -1.775   0.798
   63ST     H1V 1108   0.426  -1.854   0.898
   64ST     H00 1109   0.992  -2.821   0.889
   64ST     C01 1110   0.964  -2.921   0.854
   64ST     H02 1111   0.955  -2.917   0.745
   64ST     H03 1112   1.056  -2.975   0.874
   64ST     C04 1113   0.836  -2.984   0.916
   64ST     C05 1114   0.895  -3.143   0.896
   64ST     H06 1115   0.949  -3.141   0.990
   64ST     H07 1116   0.950  -3.145   0.804
   64ST     C08 1117   0.789  -2.924   1.046
   64ST     O09 1118   0.877  -2.944   1.128
   64ST     O0A 1119   0.634  -2.840   1.064
   64ST     C0B 1120   0.511  -2.778   1.161
   64ST     H0C 1121   0.454  -2.852   1.217
   64ST     H0D 1122   0.425  -2.769   1.094
   64ST     C0E 1123   0.466  -2.642   1.245
   64ST     H0F 1124   0.371  -2.609   1.202
   64ST     H0G 1125   0.525  -2.554   1.224
   64ST     C0H 1126   0.441  -2.620   1.403
   64ST     H0I 1127   0.405  -2.518   1.413
   64ST     H0J 1128   0.538  -2.611   1.454
   64ST     C0K 1129   0.352  -2.702   1.504
   64ST     H0M 1130   0.364  -2.810   1.504
   64ST     H0N 1131   0.389  -2.675   1.603
   64ST     C0O 1132   0.201  -2.677   1.513
   64ST     H0P 1133   0.172  -2.589   1.455
   64ST     H0Q 1134   0.174  -2.652   1.615
   64ST     C0R 1135   0.120  -2.802   1.475
   64ST     H0S 1136   0.012  -2.783   1.481
   64ST     H0T 1137   0.139  -2.881   1.547
   64ST     C0U 1138   0.154  -2.856   1.336
   64ST     H0V 1139   0.096  -2.948   1.322
   64ST     H0W 1140   0.258  -2.888   1.332
   64ST     C0X 1141   0.130  -2.755   1.223
   64ST     H0Y 1142   0.149  -2.652   1.254
   64ST     H0Z 1143   0.206  -2.768   1.146
   64ST     C10 1144  -0.005  -2.768   1.155
   64ST     H11 1145   0.010  -2.745   1.049
   64ST     H12 1146  -0.041  -2.870   1.159
   64ST     C13 1147  -0.110  -2.674   1.211
   64ST     H14 1148  -0.202  -2.700   1.158
   64ST     H15 1149  -0.130  -2.697   1.315
   64ST     C16 1150  -0.079  -2.524   1.186
   64ST     H17 1151  -0.011  -2.514   1.101
   64ST     H18 1152  -0.170  -2.476   1.150
   64ST     C19 1153  -0.026  -2.440   1.304
   64ST     H1A 1154   0.083  -2.452   1.308
   64ST     H1B 1155  -0.039  -2.335   1.280
   64ST     C1C 1156  -0.084  -2.467   1.444
   64ST     H1D 1157  -0.071  -2.571   1.475
   64ST     H1E 1158  -0.021  -2.412   1.513
   64ST     C1F 1159  -0.229  -2.419   1.469
   64ST     H1G 1160  -0.235  -2.407   1.577
   64ST     H1H 1161  -0.242  -2.318   1.430
   64ST     C1I 1162  -0.345  -2.515   1.432
   64ST     H1J 1163  -0.424  -2.499   1.505
   64ST     H1K 1164  -0.313  -2.618   1.450
   64ST     C1M 1165  -0.409  -2.506   1.292
   64ST     H1N 1166  -0.500  -2.565   1.294
   64ST     H1O 1167  -0.349  -2.560   1.219
   64ST     C1P 1168  -0.445  -2.365   1.239
   64ST     H1Q 1169  -0.553  -2.353   1.245
   64ST     H1R 1170  -0.405  -2.285   1.301
   64ST     C1S 1171  -0.401  -2.341   1.093
   64ST     H1T 1172  -0.455  -2.258   1.049
   64ST     H1U 1173  -0.418  -2.429   1.030
   64ST     H1V 1174  -0.295  -2.316   1.087
   65LA     H00 1175   0.748  -3.336   1.052
   65LA     C01 1176   0.853  -3.364   1.052
   65LA     H02 1177   0.853  -3.462   1.100
   65LA     H03 1178   0.905  -3.297   1.119
   65LA     C04 1179   0.907  -3.369   0.909
   65LA     C05 1180   1.013  -3.503   0.905
   65LA     H06 1181   1.033  -3.521   1.009
   65LA     H07 1182   0.956  -3.541   0.822
   65LA     C08 1183   0.798  -3.380   0.805
   65LA     O09 1184   0.779  -3.299   0.715
   65LA     O0A 1185   0.712  -3.486   0.824
   65LA     C0B 1186   0.566  -3.476   0.820
   65LA     H0C 1187   0.540  -3.404   0.897
   65LA     H0D 1188   0.530  -3.570   0.861
   65LA     C0E 1189   0.476  -3.446   0.694
   65LA     H0F 1190   0.523  -3.370   0.633
   65LA     H0G 1191   0.472  -3.534   0.630
   65LA     C0H 1192   0.329  -3.402   0.735
   65LA     H0I 1193   0.292  -3.468   0.814
   65LA     H0J 1194   0.335  -3.303   0.779
   65LA     C0K 1195   0.217  -3.395   0.625
   65LA     H0M 1196   0.255  -3.332   0.545
   65LA     H0N 1197   0.201  -3.493   0.580
   65LA     C0O 1198   0.079  -3.335   0.669
   65LA     H0P 1199   0.095  -3.262   0.749
   65LA     H0Q 1200   0.040  -3.277   0.585
   65LA     C0R 1201  -0.034  -3.431   0.713
   65LA     H0S 1202  -0.048  -3.509   0.638
   65LA     H0T 1203  -0.002  -3.483   0.804
   65LA     C0U 1204  -0.172  -3.362   0.737
   65LA     H0V 1205  -0.157  -3.256   0.755
   65LA     H0W 1206  -0.231  -3.365   0.645
   65LA     C0X 1207  -0.256  -3.418   0.855
   65LA     H0Y 1208  -0.201  -3.494   0.911
   65LA     H0Z 1209  -0.269  -3.338   0.928
   65LA     C10 1210  -0.400  -3.464   0.827
   65LA     H11 1211  -0.435  -3.433   0.728
   65LA     H12 1212  -0.466  -3.413   0.896
   65LA     C13 1213  -0.423  -3.615   0.850
   65LA     H14 1214  -0.527  -3.633   0.876
   65LA     H15 1215  -0.366  -3.647   0.938
   65LA     C16 1216  -0.385  -3.701   0.729
   65LA     H17 1217  -0.374  -3.805   0.761
   65LA     H18 1218  -0.287  -3.671   0.691
   65LA     C19 1219  -0.491  -3.695   0.618
   65LA     H1A 1220  -0.588  -3.727   0.655
   65LA     H1B 1221  -0.464  -3.761   0.535
   65LA     H1C 1222  -0.502  -3.595   0.578
   66EH     H00 1223   1.156  -3.625   0.716
   66EH     C01 1224   1.089  -3.708   0.738
   66EH     H02 1225   1.129  -3.798   0.689
   66EH     H03 1226   0.995  -3.692   0.685
   66EH     C04 1227   1.068  -3.725   0.890
   66EH     C05 1228   1.177  -3.852   0.928
   66EH     H06 1229   1.090  -3.913   0.951
   66EH     H07 1230   1.252  -3.847   0.851
   66EH     C08 1231   0.930  -3.762   0.931
   66EH     O09 1232   0.883  -3.728   1.040
   66EH     O0A 1233   0.858  -3.834   0.838
   66EH     C0B 1234   0.714  -3.847   0.850
   66EH     H0C 1235   0.673  -3.755   0.809
   66EH     H0D 1236   0.686  -3.844   0.955
   66EH     C0E 1237   0.645  -3.971   0.782
   66EH     H0F 1238   0.725  -4.029   0.736
   66EH     C0G 1239   0.578  -4.063   0.888
   66EH     H0H 1240   0.643  -4.072   0.976
   66EH     H0I 1241   0.570  -4.164   0.850
   66EH     C0J 1242   0.437  -4.018   0.934
   66EH     H0K 1243   0.402  -4.078   1.019
   66EH     H0M 1244   0.363  -4.031   0.855
   66EH     H0N 1245   0.435  -3.914   0.965
   66EH     C0O 1246   0.544  -3.932   0.670
   66EH     H0P 1247   0.466  -3.869   0.714
   66EH     H0Q 1248   0.594  -3.867   0.598
   66EH     C0R 1249   0.477  -4.048   0.591
   66EH     H0S 1250   0.481  -4.142   0.646
   66EH     H0T 1251   0.536  -4.067   0.501
   66EH     C0U 1252   0.329  -4.022   0.552
   66EH     H0V 1253   0.264  -4.060   0.631
   66EH     H0W 1254   0.309  -3.915   0.547
   66EH     C0X 1255   0.287  -4.086   0.419
   66EH     H0Y 1256   0.181  -4.070   0.400
   66EH     H0Z 1257   0.304  -4.193   0.417
   66EH     H10 1258   0.341  -4.041   0.335
   67LA     H00 1259   1.164  -4.017   1.134
   67LA     C01 1260   1.152  -4.098   1.063
   67LA     H02 1261   1.176  -4.188   1.119
   67LA     H03 1262   1.046  -4.106   1.039
   67LA     C04 1263   1.242  -4.071   0.940
   67LA     C05 1264   1.365  -4.185   0.960
   67LA     H06 1265   1.293  -4.264   0.969
   67LA     H07 1266   1.433  -4.138   0.890
   67LA     C08 1267   1.177  -4.109   0.813
   67LA     O09 1268   1.218  -4.073   0.703
   67LA     O0A 1269   1.073  -4.198   0.826
   67LA     C0B 1270   1.083  -4.340   0.798
   67LA     H0C 1271   0.991  -4.387   0.835
   67LA     H0D 1272   1.157  -4.382   0.866
   67LA     C0E 1273   1.111  -4.391   0.654
   67LA     H0F 1274   1.184  -4.330   0.601
   67LA     H0G 1275   1.156  -4.489   0.661
   67LA     C0H 1276   0.984  -4.405   0.569
   67LA     H0I 1277   0.903  -4.427   0.638
   67LA     H0J 1278   0.960  -4.309   0.523
   67LA     C0K 1279   0.988  -4.516   0.461
   67LA     H0M 1280   1.046  -4.481   0.376
   67LA     H0N 1281   1.040  -4.605   0.497
   67LA     C0O 1282   0.847  -4.558   0.413
   67LA     H0P 1283   0.787  -4.470   0.388
   67LA     H0Q 1284   0.859  -4.611   0.319
   67LA     C0R 1285   0.771  -4.652   0.509
   67LA     H0S 1286   0.716  -4.725   0.450
   67LA     H0T 1287   0.843  -4.710   0.567
   67LA     C0U 1288   0.670  -4.583   0.604
   67LA     H0V 1289   0.716  -4.499   0.657
   67LA     H0W 1290   0.589  -4.538   0.546
   67LA     C0X 1291   0.615  -4.679   0.710
   67LA     H0Y 1292   0.696  -4.741   0.748
   67LA     H0Z 1293   0.581  -4.621   0.796
   67LA     C10 1294   0.498  -4.764   0.659
   67LA     H11 1295   0.498  -4.769   0.550
   67LA     H12 1296   0.405  -4.714   0.685
   67LA     C13 1297   0.498  -4.907   0.718
   67LA     H14 1298   0.395  -4.942   0.727
   67LA     H15 1299   0.537  -4.905   0.819
   67LA     C16 1300   0.578  -5.007   0.633
   67LA     H17 1301   0.598  -5.096   0.692
   67LA     H18 1302   0.676  -4.965   0.608
   67LA     C19 1303   0.505  -5.049   0.504
   67LA     H1A 1304   0.407  -5.091   0.527
   67LA     H1B 1305   0.562  -5.124   0.450
   67LA     H1C 1306   0.489  -4.964   0.437
   68ST     H00 1307   1.324  -4.286   0.769
   68ST     C01 1308   1.426  -4.323   0.778
   68ST     H02 1309   1.399  -4.361   0.679
   68ST     H03 1310   1.502  -4.253   0.745
   68ST     C04 1311   1.458  -4.391   0.925
   68ST     C05 1312   1.544  -4.518   1.002
   68ST     H06 1313   1.645  -4.510   0.964
   68ST     H07 1314   1.559  -4.612   0.951
   68ST     C08 1315   1.483  -4.486   0.812
   68ST     O09 1316   1.587  -4.497   0.740
   68ST     O0A 1317   1.389  -4.581   0.804
   68ST     C0B 1318   1.291  -4.608   0.905
   68ST     H0C 1319   1.194  -4.589   0.859
   68ST     H0D 1320   1.296  -4.717   0.898
   68ST     C0E 1321   1.296  -4.577   1.064
   68ST     H0F 1322   1.325  -4.673   1.107
   68ST     H0G 1323   1.188  -4.578   1.080
   68ST     C0H 1324   1.352  -4.455   1.164
   68ST     H0I 1325   1.279  -4.375   1.154
   68ST     H0J 1326   1.312  -4.511   1.249
   68ST     C0K 1327   1.503  -4.378   1.212
   68ST     H0M 1328   1.492  -4.277   1.172
   68ST     H0N 1329   1.489  -4.362   1.319
   68ST     C0O 1330   1.675  -4.400   1.203
   68ST     H0P 1331   1.702  -4.306   1.250
   68ST     H0Q 1332   1.713  -4.462   1.284
   68ST     C0R 1333   1.795  -4.398   1.080
   68ST     H0S 1334   1.869  -4.332   1.126
   68ST     H0T 1335   1.759  -4.337   0.997
   68ST     C0U 1336   1.900  -4.515   1.018
   68ST     H0V 1337   1.949  -4.572   1.097
   68ST     H0W 1338   1.986  -4.456   0.987
   68ST     C0X 1339   1.885  -4.613   0.886
   68ST     H0Y 1340   1.782  -4.620   0.851
   68ST     H0Z 1341   1.930  -4.559   0.803
   68ST     C10 1342   1.945  -4.765   0.873
   68ST     H11 1343   1.997  -4.772   0.778
   68ST     H12 1344   2.023  -4.783   0.946
   68ST     C13 1345   1.841  -4.888   0.872
   68ST     H14 1346   1.823  -4.916   0.976
   68ST     H15 1347   1.748  -4.848   0.833
   68ST     C16 1348   1.860  -5.028   0.801
   68ST     H17 1349   1.950  -5.031   0.740
   68ST     H18 1350   1.878  -5.103   0.878
   68ST     C19 1351   1.738  -5.084   0.716
   68ST     H1A 1352   1.734  -5.031   0.621
   68ST     H1B 1353   1.756  -5.189   0.691
   68ST     C1C 1354   1.598  -5.076   0.781
   68ST     H1D 1355   1.574  -4.969   0.776
   68ST     H1E 1356   1.602  -5.105   0.885
   68ST     C1F 1357   1.474  -5.140   0.712
   68ST     H1G 1358   1.400  -5.062   0.700
   68ST     H1H 1359   1.498  -5.171   0.610
   68ST     C1I 1360   1.401  -5.253   0.789
   68ST     H1J 1361   1.353  -5.214   0.878
   68ST     H1K 1362   1.319  -5.288   0.726
   68ST     C1M 1363   1.490  -5.372   0.825
   68ST     H1N 1364   1.564  -5.341   0.900
   68ST     H1O 1365   1.546  -5.402   0.737
   68ST     C1P 1366   1.411  -5.492   0.879
   68ST     H1Q 1367   1.361  -5.466   0.972
   68ST     H1R 1368   1.331  -5.519   0.809
   68ST     C1S 1369   1.500  -5.615   0.900
   68ST     H1T 1370   1.442  -5.702   0.931
   68ST     H1U 1371   1.575  -5.596   0.977
   68ST     H1V 1372   1.553  -5.641   0.809
   69EH     H00 1373   1.771  -4.630   1.170
   69EH     C01 1374   1.715  -4.713   1.127
   69EH     H02 1375   1.743  -4.731   1.023
   69EH     H03 1376   1.749  -4.803   1.179
   69EH     C04 1377   1.568  -4.685   1.135
   69EH     C05 1378   1.560  -4.706   1.282
   69EH     H06 1379   1.461  -4.742   1.309
   69EH     H07 1380   1.584  -4.605   1.311
   69EH     C08 1381   1.516  -4.814   1.074
   69EH     O09 1382   1.530  -4.842   0.956
   69EH     O0A 1383   1.466  -4.915   1.162
   69EH     C0B 1384   1.462  -5.058   1.130
   69EH     H0C 1385   1.558  -5.086   1.086
   69EH     H0D 1386   1.384  -5.081   1.058
   69EH     C0E 1387   1.444  -5.146   1.258
   69EH     H0F 1388   1.499  -5.082   1.327
   69EH     C0G 1389   1.300  -5.140   1.313
   69EH     H0H 1390   1.257  -5.042   1.291
   69EH     H0I 1391   1.302  -5.145   1.422
   69EH     C0J 1392   1.206  -5.252   1.263
   69EH     H0K 1393   1.220  -5.270   1.156
   69EH     H0M 1394   1.225  -5.346   1.315
   69EH     H0N 1395   1.102  -5.227   1.279
   69EH     C0O 1396   1.495  -5.297   1.269
   69EH     H0P 1397   1.443  -5.355   1.193
   69EH     H0Q 1398   1.453  -5.335   1.363
   69EH     C0R 1399   1.642  -5.354   1.270
   69EH     H0S 1400   1.670  -5.380   1.168
   69EH     H0T 1401   1.635  -5.452   1.318
   69EH     C0U 1402   1.763  -5.284   1.337
   69EH     H0V 1403   1.847  -5.291   1.267
   69EH     H0W 1404   1.749  -5.176   1.345
   69EH     C0X 1405   1.815  -5.346   1.469
   69EH     H0Y 1406   1.736  -5.387   1.532
   69EH     H0Z 1407   1.869  -5.273   1.529
   69EH     H10 1408   1.885  -5.428   1.451
   70LA     H00 1409   1.494  -4.733   1.524
   70LA     C01 1410   1.599  -4.702   1.524
   70LA     H02 1411   1.613  -4.596   1.505
   70LA     H03 1412   1.650  -4.723   1.618
   70LA     C04 1413   1.655  -4.789   1.425
   70LA     C05 1414   1.645  -4.923   1.488
   70LA     H06 1415   1.735  -4.950   1.539
   70LA     H07 1416   1.653  -4.991   1.404
   70LA     C08 1417   1.795  -4.736   1.436
   70LA     O09 1418   1.840  -4.638   1.378
   70LA     O0A 1419   1.863  -4.780   1.546
   70LA     C0B 1420   1.958  -4.696   1.613
   70LA     H0C 1421   1.922  -4.593   1.615
   70LA     H0D 1422   1.964  -4.725   1.718
   70LA     C0E 1423   2.096  -4.703   1.547
   70LA     H0F 1424   2.090  -4.679   1.440
   70LA     H0G 1425   2.159  -4.624   1.590
   70LA     C0H 1426   2.164  -4.838   1.572
   70LA     H0I 1427   2.269  -4.824   1.595
   70LA     H0J 1428   2.122  -4.876   1.665
   70LA     C0K 1429   2.149  -4.942   1.460
   70LA     H0M 1430   2.098  -4.900   1.373
   70LA     H0N 1431   2.248  -4.969   1.424
   70LA     C0O 1432   2.076  -5.070   1.505
   70LA     H0P 1433   1.969  -5.050   1.518
   70LA     H0Q 1434   2.083  -5.143   1.425
   70LA     C0R 1435   2.136  -5.131   1.632
   70LA     H0S 1436   2.154  -5.237   1.614
   70LA     H0T 1437   2.234  -5.086   1.649
   70LA     C0U 1438   2.054  -5.117   1.762
   70LA     H0V 1439   2.012  -5.017   1.772
   70LA     H0W 1440   1.967  -5.183   1.759
   70LA     C0X 1441   2.139  -5.146   1.887
   70LA     H0Y 1442   2.220  -5.074   1.896
   70LA     H0Z 1443   2.075  -5.127   1.974
   70LA     C10 1444   2.191  -5.291   1.897
   70LA     H11 1445   2.132  -5.358   1.835
   70LA     H12 1446   2.171  -5.324   1.999
   70LA     C13 1447   2.343  -5.311   1.875
   70LA     H14 1448   2.373  -5.402   1.929
   70LA     H15 1449   2.397  -5.230   1.924
   70LA     C16 1450   2.395  -5.325   1.731
   70LA     H17 1451   2.503  -5.339   1.734
   70LA     H18 1452   2.383  -5.231   1.676
   70LA     C19 1453   2.335  -5.441   1.651
   70LA     H1A 1454   2.366  -5.538   1.692
   70LA     H1B 1455   2.368  -5.438   1.547
   70LA     H1C 1456   2.226  -5.440   1.649
   71LA     H00 1457   1.472  -5.207   1.595
   71LA     C01 1458   1.564  -5.151   1.578
   71LA     H02 1459   1.641  -5.210   1.626
   71LA     H03 1460   1.587  -5.171   1.473
   71LA     C04 1461   1.559  -5.003   1.627
   71LA     C05 1462   1.432  -4.958   1.642
   71LA     H06 1463   1.417  -4.944   1.536
   71LA     H07 1464   1.365  -5.039   1.666
   71LA     C08 1465   1.604  -5.039   1.767
   71LA     O09 1466   1.701  -4.994   1.828
   71LA     O0A 1467   1.517  -5.145   1.822
   71LA     C0B 1468   1.537  -5.229   1.939
   71LA     H0C 1469   1.558  -5.169   2.028
   71LA     H0D 1470   1.630  -5.285   1.927
   71LA     C0E 1471   1.425  -5.340   1.970
   71LA     H0F 1472   1.429  -5.417   1.893
   71LA     H0G 1473   1.454  -5.395   2.060
   71LA     C0H 1474   1.274  -5.300   1.988
   71LA     H0I 1475   1.262  -5.194   1.968
   71LA     H0J 1476   1.218  -5.346   1.907
   71LA     C0K 1477   1.203  -5.344   2.120
   71LA     H0M 1478   1.157  -5.441   2.104
   71LA     H0N 1479   1.275  -5.361   2.201
   71LA     C0O 1480   1.090  -5.252   2.174
   71LA     H0P 1481   1.023  -5.220   2.094
   71LA     H0Q 1482   1.027  -5.310   2.241
   71LA     C0R 1483   1.138  -5.131   2.256
   71LA     H0S 1484   1.053  -5.087   2.308
   71LA     H0T 1485   1.205  -5.162   2.336
   71LA     C0U 1486   1.201  -5.021   2.170
   71LA     H0V 1487   1.166  -5.029   2.067
   71LA     H0W 1488   1.162  -4.923   2.199
   71LA     C0X 1489   1.354  -5.023   2.178
   71LA     H0Y 1490   1.393  -5.088   2.256
   71LA     H0Z 1491   1.389  -5.075   2.088
   71LA     C10 1492   1.419  -4.885   2.183
   71LA     H11 1493   1.348  -4.805   2.160
   71LA     H12 1494   1.497  -4.877   2.107
   71LA     C13 1495   1.489  -4.857   2.315
   71LA     H14 1496   1.523  -4.754   2.308
   71LA     H15 1497   1.580  -4.917   2.320
   71LA     C16 1498   1.405  -4.880   2.443
   71LA     H17 1499   1.467  -4.853   2.528
   71LA     H18 1500   1.384  -4.986   2.455
   71LA     C19 1501   1.274  -4.801   2.448
   71LA     H1A 1502   1.288  -4.699   2.412
   71LA     H1B 1503   1.235  -4.797   2.550
   71LA     H1C 1504   1.196  -4.846   2.387
   72EH     H00 1505   1.382  -4.940   1.940
   72EH     C01 1506   1.309  -4.911   1.864
   72EH     H02 1507   1.253  -5.001   1.839
   72EH     H03 1508   1.237  -4.844   1.910
   72EH     C04 1509   1.374  -4.838   1.746
   72EH     C05 1510   1.491  -4.754   1.779
   72EH     H06 1511   1.440  -4.689   1.709
   72EH     H07 1512   1.498  -4.789   1.881
   72EH     C08 1513   1.253  -4.827   1.650
   72EH     O09 1514   1.258  -4.806   1.531
   72EH     O0A 1515   1.122  -4.866   1.693
   72EH     C0B 1516   1.030  -4.949   1.609
   72EH     H0C 1517   1.003  -5.030   1.678
   72EH     H0D 1518   1.087  -5.002   1.533
   72EH     C0E 1519   0.892  -4.898   1.545
   72EH     H0F 1520   0.890  -4.793   1.573
   72EH     C0G 1521   0.878  -4.904   1.388
   72EH     H0H 1522   0.946  -4.978   1.346
   72EH     H0I 1523   0.906  -4.804   1.356
   72EH     C0J 1524   0.742  -4.912   1.312
   72EH     H0K 1525   0.758  -4.888   1.207
   72EH     H0M 1526   0.670  -4.838   1.348
   72EH     H0N 1527   0.696  -5.010   1.314
   72EH     C0O 1528   0.762  -4.960   1.602
   72EH     H0P 1529   0.705  -5.018   1.529
   72EH     H0Q 1530   0.783  -5.036   1.677
   72EH     C0R 1531   0.667  -4.856   1.663
   72EH     H0S 1532   0.708  -4.833   1.762
   72EH     H0T 1533   0.571  -4.905   1.677
   72EH     C0U 1534   0.633  -4.723   1.593
   72EH     H0V 1535   0.717  -4.680   1.539
   72EH     H0W 1536   0.554  -4.739   1.519
   72EH     C0X 1537   0.584  -4.623   1.698
   72EH     H0Y 1538   0.561  -4.526   1.654
   72EH     H0Z 1539   0.660  -4.607   1.774
   72EH     H10 1540   0.495  -4.659   1.749
   73EH     H00 1541   1.711  -4.528   1.711
   73EH     C01 1542   1.611  -4.506   1.748
   73EH     H02 1543   1.611  -4.406   1.789
   73EH     H03 1544   1.545  -4.490   1.662
   73EH     C04 1545   1.561  -4.603   1.855
   73EH     C05 1546   1.680  -4.632   1.946
   73EH     H06 1547   1.753  -4.682   1.885
   73EH     H07 1548   1.621  -4.686   2.019
   73EH     C08 1549   1.415  -4.562   1.885
   73EH     O09 1550   1.354  -4.595   1.986
   73EH     O0A 1551   1.344  -4.492   1.772
   73EH     C0B 1552   1.200  -4.506   1.723
   73EH     H0C 1553   1.135  -4.455   1.794
   73EH     H0D 1554   1.170  -4.610   1.733
   73EH     C0E 1555   1.152  -4.455   1.572
   73EH     H0F 1556   1.103  -4.359   1.589
   73EH     C0G 1557   1.270  -4.413   1.488
   73EH     H0H 1558   1.336  -4.339   1.534
   73EH     H0I 1559   1.238  -4.373   1.391
   73EH     C0J 1560   1.344  -4.539   1.474
   73EH     H0K 1561   1.384  -4.571   1.570
   73EH     H0M 1562   1.271  -4.614   1.442
   73EH     H0N 1563   1.426  -4.543   1.402
   73EH     C0O 1564   1.045  -4.539   1.481
   73EH     H0P 1565   1.005  -4.622   1.539
   73EH     H0Q 1566   0.960  -4.472   1.472
   73EH     C0R 1567   1.059  -4.589   1.326
   73EH     H0S 1568   1.099  -4.508   1.264
   73EH     H0T 1569   0.957  -4.596   1.286
   73EH     C0U 1570   1.124  -4.729   1.285
   73EH     H0V 1571   1.232  -4.728   1.283
   73EH     H0W 1572   1.105  -4.800   1.365
   73EH     C0X 1573   1.078  -4.806   1.156
   73EH     H0Y 1574   1.082  -4.914   1.174
   73EH     H0Z 1575   1.144  -4.794   1.070
   73EH     H10 1576   0.976  -4.784   1.124
   74LA     H00 1577   1.774  -4.391   1.922
   74LA     C01 1578   1.758  -4.411   2.028
   74LA     H02 1579   1.806  -4.327   2.078
   74LA     H03 1580   1.651  -4.404   2.047
   74LA     C04 1581   1.818  -4.547   2.061
   74LA     C05 1582   1.971  -4.536   2.079
   74LA     H06 1583   2.009  -4.462   2.010
   74LA     H07 1584   2.012  -4.636   2.076
   74LA     C08 1585   1.777  -4.645   2.162
   74LA     O09 1586   1.804  -4.765   2.152
   74LA     O0A 1587   1.710  -4.602   2.267
   74LA     C0B 1588   1.725  -4.473   2.321
   74LA     H0C 1589   1.823  -4.432   2.297
   74LA     H0D 1590   1.655  -4.405   2.274
   74LA     C0E 1591   1.709  -4.485   2.472
   74LA     H0F 1592   1.789  -4.549   2.509
   74LA     H0G 1593   1.725  -4.387   2.518
   74LA     C0H 1594   1.577  -4.546   2.517
   74LA     H0I 1595   1.569  -4.648   2.478
   74LA     H0J 1596   1.582  -4.560   2.625
   74LA     C0K 1597   1.450  -4.465   2.484
   74LA     H0M 1598   1.368  -4.512   2.538
   74LA     H0N 1599   1.459  -4.364   2.525
   74LA     C0O 1600   1.408  -4.459   2.335
   74LA     H0P 1601   1.467  -4.528   2.275
   74LA     H0Q 1602   1.307  -4.498   2.325
   74LA     C0R 1603   1.408  -4.318   2.274
   74LA     H0S 1604   1.335  -4.256   2.326
   74LA     H0T 1605   1.503  -4.266   2.286
   74LA     C0U 1606   1.373  -4.328   2.126
   74LA     H0V 1607   1.448  -4.390   2.077
   74LA     H0W 1608   1.280  -4.385   2.117
   74LA     C0X 1609   1.363  -4.197   2.046
   74LA     H0Y 1610   1.363  -4.110   2.112
   74LA     H0Z 1611   1.452  -4.188   1.984
   74LA     C10 1612   1.239  -4.196   1.954
   74LA     H11 1613   1.216  -4.297   1.921
   74LA     H12 1614   1.263  -4.141   1.863
   74LA     C13 1615   1.114  -4.131   2.017
   74LA     H14 1616   1.033  -4.131   1.945
   74LA     H15 1617   1.137  -4.026   2.035
   74LA     C16 1618   1.066  -4.193   2.150
   74LA     H17 1619   0.996  -4.125   2.197
   74LA     H18 1620   1.149  -4.201   2.220
   74LA     C19 1621   0.999  -4.330   2.134
   74LA     H1A 1622   0.905  -4.322   2.078
   74LA     H1B 1623   0.976  -4.373   2.232
   74LA     H1C 1624   1.062  -4.402   2.082
   75EH     H00 1625   2.125  -4.639   2.377
   75EH     C01 1626   2.042  -4.590   2.326
   75EH     H02 1627   1.989  -4.675   2.283
   75EH     H03 1628   1.980  -4.547   2.404
   75EH     C04 1629   2.091  -4.482   2.228
   75EH     C05 1630   2.244  -4.479   2.240
   75EH     H06 1631   2.281  -4.580   2.233
   75EH     H07 1632   2.277  -4.411   2.164
   75EH     C08 1633   2.044  -4.342   2.250
   75EH     O09 1634   2.022  -4.262   2.160
   75EH     O0A 1635   2.027  -4.307   2.384
   75EH     C0B 1636   1.995  -4.171   2.424
   75EH     H0C 1637   1.888  -4.155   2.412
   75EH     H0D 1638   2.043  -4.105   2.351
   75EH     C0E 1639   2.042  -4.127   2.568
   75EH     H0F 1640   2.138  -4.175   2.583
   75EH     C0G 1641   2.070  -3.973   2.576
   75EH     H0H 1642   2.122  -3.941   2.486
   75EH     H0I 1643   2.141  -3.954   2.656
   75EH     C0J 1644   1.948  -3.881   2.600
   75EH     H0K 1645   1.976  -3.776   2.589
   75EH     H0M 1646   1.908  -3.892   2.701
   75EH     H0N 1647   1.867  -3.901   2.530
   75EH     C0O 1648   1.948  -4.171   2.684
   75EH     H0P 1649   1.853  -4.119   2.675
   75EH     H0Q 1650   1.923  -4.277   2.671
   75EH     C0R 1651   2.005  -4.153   2.828
   75EH     H0S 1652   2.097  -4.094   2.827
   75EH     H0T 1653   2.037  -4.251   2.864
   75EH     C0U 1654   1.908  -4.090   2.930
   75EH     H0V 1655   1.921  -3.982   2.930
   75EH     H0W 1656   1.804  -4.107   2.902
   75EH     C0X 1657   1.927  -4.141   3.074
   75EH     H0Y 1658   1.860  -4.090   3.143
   75EH     H0Z 1659   2.029  -4.125   3.110
   75EH     H10 1660   1.906  -4.248   3.081
   76EH     H00 1661   2.304  -4.543   2.549
   76EH     C01 1662   2.280  -4.449   2.500
   76EH     H02 1663   2.172  -4.451   2.480
   76EH     H03 1664   2.289  -4.367   2.571
   76EH     C04 1665   2.370  -4.423   2.379
   76EH     C05 1666   2.511  -4.473   2.409
   76EH     H06 1667   2.492  -4.577   2.388
   76EH     H07 1668   2.581  -4.425   2.342
   76EH     C08 1669   2.388  -4.278   2.353
   76EH     O09 1670   2.357  -4.216   2.252
   76EH     O0A 1671   2.450  -4.217   2.457
   76EH     C0B 1672   2.522  -4.093   2.445
   76EH     H0C 1673   2.498  -4.036   2.535
   76EH     H0D 1674   2.492  -4.033   2.360
   76EH     C0E 1675   2.674  -4.124   2.444
   76EH     H0F 1676   2.672  -4.219   2.497
   76EH     C0G 1677   2.731  -4.165   2.307
   76EH     H0H 1678   2.658  -4.228   2.256
   76EH     H0I 1679   2.819  -4.227   2.321
   76EH     C0J 1680   2.768  -4.047   2.216
   76EH     H0K 1681   2.795  -4.084   2.117
   76EH     H0M 1682   2.854  -3.993   2.255
   76EH     H0N 1683   2.684  -3.978   2.205
   76EH     C0O 1684   2.766  -4.027   2.526
   76EH     H0P 1685   2.786  -3.935   2.472
   76EH     H0Q 1686   2.710  -3.996   2.615
   76EH     C0R 1687   2.898  -4.087   2.581
   76EH     H0S 1688   2.893  -4.195   2.565
   76EH     H0T 1689   2.899  -4.076   2.690
   76EH     C0U 1690   3.031  -4.037   2.522
   76EH     H0V 1691   3.054  -4.094   2.432
   76EH     H0W 1692   3.021  -3.933   2.491
   76EH     C0X 1693   3.152  -4.046   2.617
   76EH     H0Y 1694   3.238  -3.989   2.581
   76EH     H0Z 1695   3.189  -4.149   2.625
   76EH     H10 1696   3.129  -4.011   2.718
   77EH     H00 1697   2.696  -4.693   2.626
   77EH     C01 1698   2.651  -4.644   2.540
   77EH     H02 1699   2.704  -4.666   2.448
   77EH     H03 1700   2.558  -4.700   2.533
   77EH     C04 1701   2.632  -4.491   2.561
   77EH     C05 1702   2.761  -4.426   2.620
   77EH     H06 1703   2.747  -4.321   2.640
   77EH     H07 1704   2.745  -4.456   2.722
   77EH     C08 1705   2.529  -4.469   2.664
   77EH     O09 1706   2.501  -4.360   2.714
   77EH     O0A 1707   2.479  -4.585   2.713
   77EH     C0B 1708   2.375  -4.591   2.809
   77EH     H0C 1709   2.300  -4.515   2.787
   77EH     H0D 1710   2.413  -4.571   2.909
   77EH     C0E 1711   2.316  -4.734   2.795
   77EH     H0F 1712   2.298  -4.748   2.688
   77EH     C0G 1713   2.420  -4.841   2.837
   77EH     H0H 1714   2.515  -4.821   2.786
   77EH     H0I 1715   2.391  -4.939   2.799
   77EH     C0J 1716   2.447  -4.852   2.988
   77EH     H0K 1717   2.519  -4.931   3.009
   77EH     H0M 1718   2.356  -4.875   3.044
   77EH     H0N 1719   2.488  -4.759   3.028
   77EH     C0O 1720   2.178  -4.750   2.863
   77EH     H0P 1721   2.190  -4.736   2.971
   77EH     H0Q 1722   2.112  -4.669   2.831
   77EH     C0R 1723   2.108  -4.884   2.833
   77EH     H0S 1724   2.181  -4.965   2.828
   77EH     H0T 1725   2.062  -4.882   2.734
   77EH     C0U 1726   2.005  -4.926   2.939
   77EH     H0V 1727   1.996  -5.035   2.938
   77EH     H0W 1728   2.042  -4.901   3.039
   77EH     C0X 1729   1.865  -4.867   2.918
   77EH     H0Y 1730   1.801  -4.890   3.002
   77EH     H0Z 1731   1.819  -4.908   2.828
   77EH     H10 1732   1.869  -4.758   2.907
   78LA     H00 1733   2.890  -4.655   2.639
   78LA     C01 1734   2.942  -4.587   2.707
   78LA     H02 1735   2.906  -4.602   2.808
   78LA     H03 1736   3.045  -4.622   2.693
   78LA     C04 1737   2.949  -4.443   2.658
   78LA     C05 1738   3.027  -4.352   2.760
   78LA     H06 1739   3.039  -4.256   2.712
   78LA     H07 1740   2.967  -4.357   2.850
   78LA     C08 1741   2.989  -4.449   2.511
   78LA     O09 1742   3.007  -4.352   2.438
   78LA     O0A 1743   3.015  -4.579   2.459
   78LA     C0B 1744   2.971  -4.645   2.335
   78LA     H0C 1745   2.880  -4.701   2.357
   78LA     H0D 1746   3.043  -4.724   2.316
   78LA     C0E 1747   2.962  -4.595   2.188
   78LA     H0F 1748   2.907  -4.501   2.186
   78LA     H0G 1749   3.062  -4.572   2.150
   78LA     C0H 1750   2.889  -4.697   2.091
   78LA     H0I 1751   2.794  -4.727   2.135
   78LA     H0J 1752   2.862  -4.644   2.000
   78LA     C0K 1753   2.963  -4.827   2.043
   78LA     H0M 1754   3.041  -4.799   1.973
   78LA     H0N 1755   3.013  -4.877   2.126
   78LA     C0O 1756   2.873  -4.932   1.971
   78LA     H0P 1757   2.797  -4.882   1.911
   78LA     H0Q 1758   2.933  -4.988   1.898
   78LA     C0R 1759   2.810  -5.036   2.066
   78LA     H0S 1760   2.880  -5.118   2.083
   78LA     H0T 1761   2.797  -4.989   2.164
   78LA     C0U 1762   2.674  -5.093   2.021
   78LA     H0V 1763   2.608  -5.010   1.997
   78LA     H0W 1764   2.683  -5.151   1.930
   78LA     C0X 1765   2.607  -5.176   2.132
   78LA     H0Y 1766   2.632  -5.134   2.229
   78LA     H0Z 1767   2.499  -5.167   2.125
   78LA     C10 1768   2.643  -5.326   2.129
   78LA     H11 1769   2.740  -5.341   2.082
   78LA     H12 1770   2.572  -5.378   2.064
   78LA     C13 1771   2.640  -5.392   2.268
   78LA     H14 1772   2.589  -5.489   2.263
   78LA     H15 1773   2.580  -5.333   2.337
   78LA     C16 1774   2.781  -5.413   2.327
   78LA     H17 1775   2.773  -5.431   2.434
   78LA     H18 1776   2.840  -5.322   2.316
   78LA     C19 1777   2.854  -5.533   2.264
   78LA     H1A 1778   2.800  -5.626   2.280
   78LA     H1B 1779   2.954  -5.545   2.307
   78LA     H1C 1780   2.867  -5.520   2.156
   79LA     H00 1781   3.351  -4.274   2.707
   79LA     C01 1782   3.291  -4.361   2.737
   79LA     H02 1783   3.236  -4.396   2.650
   79LA     H03 1784   3.362  -4.442   2.756
   79LA     C04 1785   3.204  -4.339   2.862
   79LA     C05 1786   3.288  -4.243   2.971
   79LA     H06 1787   3.385  -4.253   2.926
   79LA     H07 1788   3.282  -4.309   3.056
   79LA     C08 1789   3.170  -4.485   2.910
   79LA     O09 1790   3.083  -4.500   2.992
   79LA     O0A 1791   3.221  -4.616   2.850
   79LA     C0B 1792   3.156  -4.753   2.878
   79LA     H0C 1793   3.062  -4.768   2.826
   79LA     H0D 1794   3.122  -4.739   2.981
   79LA     C0E 1795   3.206  -4.910   2.891
   79LA     H0F 1796   3.288  -4.917   2.962
   79LA     H0G 1797   3.124  -4.953   2.948
   79LA     C0H 1798   3.226  -5.032   2.787
   79LA     H0I 1799   3.330  -5.052   2.761
   79LA     H0J 1800   3.214  -5.121   2.850
   79LA     C0K 1801   3.134  -5.070   2.666
   79LA     H0M 1802   3.131  -5.178   2.659
   79LA     H0N 1803   3.030  -5.040   2.682
   79LA     C0O 1804   3.185  -5.027   2.527
   79LA     H0P 1805   3.280  -5.074   2.501
   79LA     H0Q 1806   3.116  -5.065   2.451
   79LA     C0R 1807   3.192  -4.875   2.513
   79LA     H0S 1808   3.115  -4.851   2.440
   79LA     H0T 1809   3.159  -4.827   2.605
   79LA     C0U 1810   3.329  -4.817   2.472
   79LA     H0V 1811   3.363  -4.862   2.378
   79LA     H0W 1812   3.319  -4.710   2.453
   79LA     C0X 1813   3.432  -4.842   2.582
   79LA     H0Y 1814   3.376  -4.894   2.659
   79LA     H0Z 1815   3.508  -4.915   2.553
   79LA     C10 1816   3.488  -4.722   2.660
   79LA     H11 1817   3.419  -4.638   2.651
   79LA     H12 1818   3.584  -4.690   2.619
   79LA     C13 1819   3.506  -4.759   2.808
   79LA     H14 1820   3.571  -4.846   2.818
   79LA     H15 1821   3.413  -4.800   2.845
   79LA     C16 1822   3.536  -4.644   2.904
   79LA     H17 1823   3.583  -4.685   2.993
   79LA     H18 1824   3.442  -4.603   2.941
   79LA     C19 1825   3.618  -4.528   2.844
   79LA     H1A 1826   3.720  -4.559   2.820
   79LA     H1B 1827   3.623  -4.446   2.916
   79LA     H1C 1828   3.574  -4.489   2.753
   80EH     H00 1829   3.478  -4.071   2.904
   80EH     C01 1830   3.391  -4.012   2.932
   80EH     H02 1831   3.425  -3.909   2.928
   80EH     H03 1832   3.314  -4.027   2.857
   80EH     C04 1833   3.347  -4.051   3.074
   80EH     C05 1834   3.451  -3.964   3.177
   80EH     H06 1835   3.409  -4.008   3.266
   80EH     H07 1836   3.543  -3.991   3.128
   80EH     C08 1837   3.207  -4.077   3.123
   80EH     O09 1838   3.111  -4.027   3.067
   80EH     O0A 1839   3.192  -4.191   3.213
   80EH     C0B 1840   3.070  -4.276   3.206
   80EH     H0C 1841   3.051  -4.297   3.101
   80EH     H0D 1842   2.989  -4.206   3.229
   80EH     C0E 1843   3.043  -4.410   3.293
   80EH     H0F 1844   3.066  -4.380   3.395
   80EH     C0G 1845   2.889  -4.445   3.291
   80EH     H0H 1846   2.831  -4.353   3.302
   80EH     H0I 1847   2.865  -4.504   3.379
   80EH     C0J 1848   2.830  -4.521   3.169
   80EH     H0K 1849   2.721  -4.522   3.172
   80EH     H0M 1850   2.860  -4.626   3.166
   80EH     H0N 1851   2.857  -4.476   3.073
   80EH     C0O 1852   3.122  -4.546   3.269
   80EH     H0P 1853   3.073  -4.602   3.189
   80EH     H0Q 1854   3.223  -4.527   3.232
   80EH     C0R 1855   3.126  -4.654   3.382
   80EH     H0S 1856   3.050  -4.633   3.458
   80EH     H0T 1857   3.222  -4.646   3.434
   80EH     C0U 1858   3.105  -4.801   3.333
   80EH     H0V 1859   3.000  -4.828   3.344
   80EH     H0W 1860   3.126  -4.811   3.227
   80EH     C0X 1861   3.190  -4.907   3.406
   80EH     H0Y 1862   3.161  -5.008   3.375
   80EH     H0Z 1863   3.179  -4.903   3.514
   80EH     H10 1864   3.296  -4.897   3.382
   81ST     H00 1865   3.702  -3.862   3.156
   81ST     C01 1866   3.686  -3.857   3.264
   81ST     H02 1867   3.695  -3.958   3.303
   81ST     H03 1868   3.775  -3.808   3.302
   81ST     C04 1869   3.554  -3.787   3.302
   81ST     C05 1870   3.599  -3.623   3.343
   81ST     H06 1871   3.505  -3.580   3.375
   81ST     H07 1872   3.654  -3.591   3.256
   81ST     C08 1873   3.474  -3.843   3.412
   81ST     O09 1874   3.356  -3.815   3.431
   81ST     O0A 1875   3.541  -3.933   3.488
   81ST     C0B 1876   3.527  -4.077   3.484
   81ST     H0C 1877   3.573  -4.115   3.394
   81ST     H0D 1878   3.593  -4.114   3.563
   81ST     C0E 1879   3.392  -4.153   3.502
   81ST     H0F 1880   3.417  -4.253   3.536
   81ST     H0G 1881   3.345  -4.171   3.405
   81ST     C0H 1882   3.285  -4.099   3.598
   81ST     H0I 1883   3.222  -4.182   3.630
   81ST     H0J 1884   3.219  -4.033   3.541
   81ST     C0K 1885   3.336  -4.022   3.720
   81ST     H0M 1886   3.382  -3.930   3.685
   81ST     H0N 1887   3.249  -3.989   3.779
   81ST     C0O 1888   3.432  -4.099   3.812
   81ST     H0P 1889   3.498  -4.164   3.756
   81ST     H0Q 1890   3.374  -4.165   3.877
   81ST     C0R 1891   3.516  -4.003   3.899
   81ST     H0S 1892   3.548  -4.054   3.990
   81ST     H0T 1893   3.451  -3.923   3.934
   81ST     C0U 1894   3.637  -3.941   3.827
   81ST     H0V 1895   3.674  -3.858   3.888
   81ST     H0W 1896   3.605  -3.894   3.734
   81ST     C0X 1897   3.757  -4.034   3.798
   81ST     H0Y 1898   3.738  -4.098   3.712
   81ST     H0Z 1899   3.840  -3.971   3.766
   81ST     C10 1900   3.804  -4.120   3.916
   81ST     H11 1901   3.912  -4.127   3.916
   81ST     H12 1902   3.779  -4.070   4.010
   81ST     C13 1903   3.745  -4.263   3.916
   81ST     H14 1904   3.763  -4.305   4.014
   81ST     H15 1905   3.636  -4.261   3.908
   81ST     C16 1906   3.809  -4.358   3.812
   81ST     H17 1907   3.904  -4.316   3.779
   81ST     H18 1908   3.837  -4.448   3.867
   81ST     C19 1909   3.727  -4.394   3.685
   81ST     H1A 1910   3.718  -4.304   3.624
   81ST     H1B 1911   3.785  -4.462   3.623
   81ST     C1C 1912   3.585  -4.454   3.703
   81ST     H1D 1913   3.528  -4.401   3.780
   81ST     H1E 1914   3.530  -4.433   3.610
   81ST     C1F 1915   3.573  -4.606   3.723
   81ST     H1G 1916   3.467  -4.631   3.722
   81ST     H1H 1917   3.615  -4.660   3.638
   81ST     C1I 1918   3.632  -4.656   3.855
   81ST     H1J 1919   3.571  -4.736   3.897
   81ST     H1K 1920   3.627  -4.573   3.925
   81ST     C1M 1921   3.777  -4.704   3.841
   81ST     H1N 1922   3.827  -4.699   3.938
   81ST     H1O 1923   3.831  -4.634   3.776
   81ST     C1P 1924   3.793  -4.843   3.781
   81ST     H1Q 1925   3.784  -4.920   3.858
   81ST     H1R 1926   3.715  -4.864   3.708
   81ST     C1S 1927   3.929  -4.854   3.712
   81ST     H1T 1928   3.954  -4.957   3.687
   81ST     H1U 1929   4.009  -4.814   3.774
   81ST     H1V 1930   3.925  -4.796   3.620
   82ST     H00 1931   3.588  -3.490   3.651
   82ST     C01 1932   3.675  -3.536   3.604
   82ST     H02 1933   3.754  -3.541   3.678
   82ST     H03 1934   3.652  -3.641   3.585
   82ST     C04 1935   3.722  -3.463   3.477
   82ST     C05 1936   3.754  -3.295   3.527
   82ST     H06 1937   3.807  -3.338   3.610
   82ST     H07 1938   3.656  -3.259   3.553
   82ST     C08 1939   3.853  -3.528   3.450
   82ST     O09 1940   3.872  -3.645   3.426
   82ST     O0A 1941   3.955  -3.448   3.472
   82ST     C0B 1942   4.011  -3.376   3.365
   82ST     H0C 1943   4.109  -3.418   3.341
   82ST     H0D 1944   4.031  -3.277   3.406
   82ST     C0E 1945   3.921  -3.349   3.243
   82ST     H0F 1946   3.957  -3.258   3.194
   82ST     H0G 1947   3.821  -3.322   3.276
   82ST     C0H 1948   3.917  -3.461   3.140
   82ST     H0I 1949   3.871  -3.421   3.049
   82ST     H0J 1950   3.851  -3.540   3.175
   82ST     C0K 1951   4.055  -3.523   3.110
   82ST     H0M 1952   4.089  -3.578   3.198
   82ST     H0N 1953   4.044  -3.598   3.032
   82ST     C0O 1954   4.159  -3.417   3.067
   82ST     H0P 1955   4.140  -3.321   3.115
   82ST     H0Q 1956   4.144  -3.397   2.960
   82ST     C0R 1957   4.306  -3.453   3.092
   82ST     H0S 1958   4.368  -3.386   3.032
   82ST     H0T 1959   4.323  -3.553   3.051
   82ST     C0U 1960   4.358  -3.451   3.239
   82ST     H0V 1961   4.457  -3.495   3.236
   82ST     H0W 1962   4.300  -3.521   3.299
   82ST     C0X 1963   4.371  -3.316   3.315
   82ST     H0Y 1964   4.280  -3.289   3.368
   82ST     H0Z 1965   4.442  -3.334   3.396
   82ST     C10 1966   4.423  -3.194   3.235
   82ST     H11 1967   4.498  -3.142   3.295
   82ST     H12 1968   4.478  -3.228   3.147
   82ST     C13 1969   4.316  -3.092   3.193
   82ST     H14 1970   4.352  -3.035   3.107
   82ST     H15 1971   4.225  -3.142   3.158
   82ST     C16 1972   4.279  -2.990   3.301
   82ST     H17 1973   4.344  -3.005   3.388
   82ST     H18 1974   4.303  -2.889   3.270
   82ST     C19 1975   4.137  -3.004   3.355
   82ST     H1A 1976   4.144  -3.101   3.404
   82ST     H1B 1977   4.127  -2.926   3.431
   82ST     C1C 1978   4.008  -3.006   3.272
   82ST     H1D 1979   4.021  -3.045   3.172
   82ST     H1E 1980   3.944  -3.077   3.324
   82ST     C1F 1981   3.922  -2.878   3.273
   82ST     H1G 1982   3.818  -2.906   3.257
   82ST     H1H 1983   3.918  -2.835   3.373
   82ST     C1I 1984   3.959  -2.778   3.163
   82ST     H1J 1985   3.873  -2.717   3.139
   82ST     H1K 1986   3.979  -2.836   3.073
   82ST     C1M 1987   4.079  -2.687   3.196
   82ST     H1N 1988   4.119  -2.629   3.112
   82ST     H1O 1989   4.165  -2.747   3.226
   82ST     C1P 1990   4.048  -2.578   3.294
   82ST     H1Q 1991   4.114  -2.492   3.278
   82ST     H1R 1992   3.947  -2.541   3.281
   82ST     C1S 1993   4.067  -2.635   3.433
   82ST     H1T 1994   3.965  -2.656   3.465
   82ST     H1U 1995   4.118  -2.571   3.505
   82ST     H1V 1996   4.125  -2.727   3.436
   83LA     H00 1997   4.076  -3.102   3.711
   83LA     C01 1998   4.024  -3.114   3.616
   83LA     H02 1999   4.072  -3.021   3.588
   83LA     H03 2000   4.071  -3.206   3.583
   83LA     C04 2001   3.868  -3.104   3.627
   83LA     C05 2002   3.859  -2.927   3.634
   83LA     H06 2003   3.833  -2.936   3.739
   83LA     H07 2004   3.780  -2.902   3.565
   83LA     C08 2005   3.879  -3.178   3.766
   83LA     O09 2006   3.820  -3.137   3.866
   83LA     O0A 2007   3.982  -3.293   3.785
   83LA     C0B 2008   4.081  -3.315   3.901
   83LA     H0C 2009   4.032  -3.286   3.993
   83LA     H0D 2010   4.158  -3.239   3.886
   83LA     C0E 2011   4.168  -3.454   3.932
   83LA     H0F 2012   4.097  -3.529   3.968
   83LA     H0G 2013   4.204  -3.494   3.838
   83LA     C0H 2014   4.296  -3.459   4.036
   83LA     H0I 2015   4.374  -3.394   3.997
   83LA     H0J 2016   4.265  -3.414   4.130
   83LA     C0K 2017   4.373  -3.597   4.075
   83LA     H0M 2018   4.297  -3.671   4.102
   83LA     H0N 2019   4.422  -3.640   3.988
   83LA     C0O 2020   4.480  -3.602   4.197
   83LA     H0P 2021   4.490  -3.503   4.241
   83LA     H0Q 2022   4.436  -3.662   4.277
   83LA     C0R 2023   4.625  -3.663   4.176
   83LA     H0S 2024   4.618  -3.766   4.141
   83LA     H0T 2025   4.675  -3.607   4.096
   83LA     C0U 2026   4.723  -3.665   4.300
   83LA     H0V 2027   4.716  -3.570   4.352
   83LA     H0W 2028   4.691  -3.738   4.374
   83LA     C0X 2029   4.876  -3.688   4.269
   83LA     H0Y 2030   4.892  -3.690   4.161
   83LA     H0Z 2031   4.931  -3.600   4.303
   83LA     C10 2032   4.947  -3.810   4.334
   83LA     H11 2033   4.881  -3.897   4.336
   83LA     H12 2034   4.969  -3.788   4.439
   83LA     C13 2035   5.081  -3.849   4.265
   83LA     H14 2036   5.157  -3.872   4.340
   83LA     H15 2037   5.121  -3.763   4.212
   83LA     C16 2038   5.069  -3.968   4.169
   83LA     H17 2039   5.150  -3.964   4.096
   83LA     H18 2040   4.977  -3.961   4.112
   83LA     C19 2041   5.077  -4.105   4.239
   83LA     H1A 2042   5.175  -4.123   4.282
   83LA     H1B 2043   5.056  -4.186   4.170
   83LA     H1C 2044   5.004  -4.112   4.320
   84ST     H00 2045   3.801  -2.774   3.859
   84ST     C01 2046   3.794  -2.704   3.775
   84ST     H02 2047   3.711  -2.733   3.711
   84ST     H03 2048   3.765  -2.612   3.825
   84ST     C04 2049   3.924  -2.695   3.693
   84ST     C05 2050   3.923  -2.519   3.672
   84ST     H06 2051   3.826  -2.496   3.631
   84ST     H07 2052   3.936  -2.497   3.777
   84ST     C08 2053   4.038  -2.727   3.783
   84ST     O09 2054   4.046  -2.828   3.852
   84ST     O0A 2055   4.132  -2.626   3.789
   84ST     C0B 2056   4.221  -2.610   3.901
   84ST     H0C 2057   4.176  -2.539   3.971
   84ST     H0D 2058   4.229  -2.699   3.962
   84ST     C0E 2059   4.363  -2.558   3.868
   84ST     H0F 2060   4.437  -2.614   3.926
   84ST     H0G 2061   4.374  -2.455   3.904
   84ST     C0H 2062   4.404  -2.560   3.721
   84ST     H0I 2063   4.509  -2.531   3.714
   84ST     H0J 2064   4.349  -2.482   3.668
   84ST     C0K 2065   4.383  -2.695   3.649
   84ST     H0M 2066   4.278  -2.715   3.628
   84ST     H0N 2067   4.427  -2.685   3.549
   84ST     C0O 2068   4.452  -2.815   3.714
   84ST     H0P 2069   4.537  -2.782   3.774
   84ST     H0Q 2070   4.495  -2.867   3.629
   84ST     C0R 2071   4.363  -2.922   3.783
   84ST     H0S 2072   4.395  -3.019   3.745
   84ST     H0T 2073   4.261  -2.913   3.746
   84ST     C0U 2074   4.358  -2.938   3.938
   84ST     H0V 2075   4.341  -3.043   3.959
   84ST     H0W 2076   4.264  -2.896   3.975
   84ST     C0X 2077   4.474  -2.886   4.026
   84ST     H0Y 2078   4.542  -2.818   3.976
   84ST     H0Z 2079   4.430  -2.826   4.105
   84ST     C10 2080   4.553  -2.999   4.095
   84ST     H11 2081   4.608  -2.958   4.180
   84ST     H12 2082   4.483  -3.070   4.138
   84ST     C13 2083   4.650  -3.075   4.003
   84ST     H14 2084   4.676  -3.167   4.054
   84ST     H15 2085   4.600  -3.109   3.912
   84ST     C16 2086   4.783  -3.001   3.974
   84ST     H17 2087   4.810  -2.940   4.060
   84ST     H18 2088   4.864  -3.074   3.970
   84ST     C19 2089   4.792  -2.912   3.848
   84ST     H1A 2090   4.743  -2.817   3.872
   84ST     H1B 2091   4.896  -2.883   3.830
   84ST     C1C 2092   4.731  -2.962   3.716
   84ST     H1D 2093   4.632  -3.005   3.731
   84ST     H1E 2094   4.714  -2.872   3.657
   84ST     C1F 2095   4.812  -3.052   3.622
   84ST     H1G 2096   4.776  -3.030   3.521
   84ST     H1H 2097   4.917  -3.023   3.620
   84ST     C1I 2098   4.790  -3.204   3.640
   84ST     H1J 2099   4.809  -3.253   3.544
   84ST     H1K 2100   4.686  -3.224   3.662
   84ST     C1M 2101   4.880  -3.271   3.745
   84ST     H1N 2102   4.860  -3.378   3.741
   84ST     H1O 2103   4.849  -3.242   3.845
   84ST     C1P 2104   5.031  -3.248   3.723
   84ST     H1Q 2105   5.082  -3.344   3.726
   84ST     H1R 2106   5.049  -3.209   3.623
   84ST     C1S 2107   5.094  -3.155   3.827
   84ST     H1T 2108   5.200  -3.141   3.808
   84ST     H1U 2109   5.084  -3.196   3.928
   84ST     H1V 2110   5.048  -3.057   3.826
   85ST     H00 2111   4.050  -2.228   3.457
   85ST     C01 2112   4.037  -2.319   3.516
   85ST     H02 2113   3.963  -2.381   3.467
   85ST     H03 2114   4.133  -2.372   3.518
   85ST     C04 2115   4.004  -2.292   3.660
   85ST     C05 2116   3.972  -2.122   3.670
   85ST     H06 2117   3.890  -2.121   3.600
   85ST     H07 2118   3.960  -2.104   3.776
   85ST     C08 2119   4.113  -2.295   3.757
   85ST     O09 2120   4.101  -2.334   3.872
   85ST     O0A 2121   4.220  -2.218   3.714
   85ST     C0B 2122   4.290  -2.136   3.809
   85ST     H0C 2123   4.218  -2.107   3.885
   85ST     H0D 2124   4.366  -2.194   3.862
   85ST     C0E 2125   4.346  -2.003   3.751
   85ST     H0F 2126   4.304  -1.918   3.807
   85ST     H0G 2127   4.308  -1.991   3.650
   85ST     C0H 2128   4.498  -1.984   3.742
   85ST     H0I 2129   4.519  -1.883   3.707
   85ST     H0J 2130   4.532  -2.050   3.662
   85ST     C0K 2131   4.582  -2.012   3.869
   85ST     H0M 2132   4.562  -2.114   3.902
   85ST     H0N 2133   4.689  -2.015   3.850
   85ST     C0O 2134   4.567  -1.910   3.982
   85ST     H0P 2135   4.470  -1.860   3.974
   85ST     H0Q 2136   4.640  -1.831   3.968
   85ST     C0R 2137   4.585  -1.975   4.120
   85ST     H0S 2138   4.593  -1.899   4.197
   85ST     H0T 2139   4.682  -2.026   4.122
   85ST     C0U 2140   4.474  -2.075   4.156
   85ST     H0V 2141   4.491  -2.113   4.256
   85ST     H0W 2142   4.483  -2.163   4.092
   85ST     C0X 2143   4.329  -2.022   4.144
   85ST     H0Y 2144   4.309  -1.982   4.044
   85ST     H0Z 2145   4.262  -2.108   4.153
   85ST     C10 2146   4.291  -1.918   4.250
   85ST     H11 2147   4.184  -1.928   4.272
   85ST     H12 2148   4.341  -1.943   4.343
   85ST     C13 2149   4.323  -1.773   4.212
   85ST     H14 2150   4.315  -1.714   4.303
   85ST     H15 2151   4.428  -1.765   4.183
   85ST     C16 2152   4.230  -1.710   4.105
   85ST     H17 2153   4.166  -1.787   4.063
   85ST     H18 2154   4.161  -1.643   4.155
   85ST     C19 2155   4.294  -1.633   3.986
   85ST     H1A 2156   4.297  -1.701   3.901
   85ST     H1B 2157   4.225  -1.554   3.954
   85ST     C1C 2158   4.436  -1.573   3.996
   85ST     H1D 2159   4.510  -1.647   4.026
   85ST     H1E 2160   4.463  -1.547   3.894
   85ST     C1F 2161   4.456  -1.445   4.079
   85ST     H1G 2162   4.552  -1.407   4.046
   85ST     H1H 2163   4.387  -1.366   4.049
   85ST     C1I 2164   4.469  -1.465   4.231
   85ST     H1J 2165   4.549  -1.399   4.265
   85ST     H1K 2166   4.506  -1.565   4.253
   85ST     C1M 2167   4.342  -1.436   4.315
   85ST     H1N 2168   4.362  -1.466   4.418
   85ST     H1O 2169   4.259  -1.499   4.284
   85ST     C1P 2170   4.299  -1.289   4.313
   85ST     H1Q 2171   4.262  -1.260   4.411
   85ST     H1R 2172   4.384  -1.223   4.292
   85ST     C1S 2173   4.188  -1.264   4.211
   85ST     H1T 2174   4.184  -1.161   4.178
   85ST     H1U 2175   4.092  -1.290   4.255
   85ST     H1V 2176   4.198  -1.327   4.123
   86EH     H00 2177   3.862  -1.783   3.532
   86EH     C01 2178   3.878  -1.882   3.575
   86EH     H02 2179   3.802  -1.900   3.651
   86EH     H03 2180   3.863  -1.948   3.490
   86EH     C04 2181   4.018  -1.893   3.632
   86EH     C05 2182   4.031  -1.741   3.708
   86EH     H06 2183   4.136  -1.737   3.731
   86EH     H07 2184   3.960  -1.743   3.790
   86EH     C08 2185   4.115  -1.898   3.513
   86EH     O09 2186   4.109  -1.988   3.430
   86EH     O0A 2187   4.210  -1.789   3.486
   86EH     C0B 2188   4.247  -1.735   3.349
   86EH     H0C 2189   4.219  -1.630   3.359
   86EH     H0D 2190   4.174  -1.773   3.278
   86EH     C0E 2191   4.392  -1.729   3.273
   86EH     H0F 2192   4.468  -1.738   3.351
   86EH     C0G 2193   4.407  -1.852   3.178
   86EH     H0H 2194   4.327  -1.922   3.200
   86EH     H0I 2195   4.496  -1.908   3.204
   86EH     C0J 2196   4.407  -1.833   3.024
   86EH     H0K 2197   4.358  -1.918   2.975
   86EH     H0M 2198   4.509  -1.834   2.983
   86EH     H0N 2199   4.357  -1.744   2.988
   86EH     C0O 2200   4.429  -1.591   3.196
   86EH     H0P 2201   4.355  -1.569   3.119
   86EH     H0Q 2202   4.412  -1.512   3.270
   86EH     C0R 2203   4.573  -1.555   3.136
   86EH     H0S 2204   4.652  -1.614   3.183
   86EH     H0T 2205   4.597  -1.454   3.171
   86EH     C0U 2206   4.593  -1.543   2.980
   86EH     H0V 2207   4.580  -1.639   2.930
   86EH     H0W 2208   4.515  -1.479   2.939
   86EH     C0X 2209   4.728  -1.484   2.927
   86EH     H0Y 2210   4.723  -1.465   2.820
   86EH     H0Z 2211   4.815  -1.549   2.935
   86EH     H10 2212   4.757  -1.390   2.975
   87EH     H00 2213   3.927  -1.437   3.515
   87EH     C01 2214   3.942  -1.530   3.569
   87EH     H02 2215   3.845  -1.574   3.590
   87EH     H03 2216   3.996  -1.594   3.499
   87EH     C04 2217   4.025  -1.512   3.696
   87EH     C05 2218   3.959  -1.377   3.769
   87EH     H06 2219   3.968  -1.309   3.686
   87EH     H07 2220   3.856  -1.403   3.787
   87EH     C08 2221   4.158  -1.463   3.633
   87EH     O09 2222   4.261  -1.529   3.636
   87EH     O0A 2223   4.156  -1.334   3.551
   87EH     C0B 2224   4.273  -1.272   3.474
   87EH     H0C 2225   4.292  -1.336   3.388
   87EH     H0D 2226   4.361  -1.287   3.536
   87EH     C0E 2227   4.278  -1.115   3.419
   87EH     H0F 2228   4.188  -1.071   3.463
   87EH     C0G 2229   4.399  -1.026   3.471
   87EH     H0H 2230   4.437  -1.064   3.566
   87EH     H0I 2231   4.359  -0.928   3.497
   87EH     C0J 2232   4.517  -0.996   3.372
   87EH     H0K 2233   4.596  -0.934   3.415
   87EH     H0M 2234   4.489  -0.936   3.286
   87EH     H0N 2235   4.566  -1.085   3.333
   87EH     C0O 2236   4.269  -1.082   3.264
   87EH     H0P 2237   4.361  -1.111   3.213
   87EH     H0Q 2238   4.196  -1.148   3.218
   87EH     C0R 2239   4.237  -0.929   3.225
   87EH     H0S 2240   4.262  -0.863   3.308
   87EH     H0T 2241   4.130  -0.916   3.216
   87EH     C0U 2242   4.306  -0.864   3.100
   87EH     H0V 2243   4.401  -0.820   3.128
   87EH     H0W 2244   4.330  -0.938   3.023
   87EH     C0X 2245   4.227  -0.749   3.033
   87EH     H0Y 2246   4.288  -0.695   2.960
   87EH     H0Z 2247   4.193  -0.674   3.104
   87EH     H10 2248   4.140  -0.785   2.978
   88EH     H00 2249   3.956  -1.223   4.095
   88EH     C01 2250   3.943  -1.281   4.004
   88EH     H02 2251   4.016  -1.361   4.006
   88EH     H03 2252   3.843  -1.325   4.002
   88EH     C04 2253   3.966  -1.190   3.886
   88EH     C05 2254   3.886  -1.045   3.910
   88EH     H06 2255   3.786  -1.086   3.904
   88EH     H07 2256   3.920  -0.980   3.831
   88EH     C08 2257   4.109  -1.160   3.859
   88EH     O09 2258   4.195  -1.240   3.825
   88EH     O0A 2259   4.139  -1.031   3.884
   88EH     C0B 2260   4.223  -0.955   3.798
   88EH     H0C 2261   4.218  -0.998   3.697
   88EH     H0D 2262   4.328  -0.961   3.828
   88EH     C0E 2263   4.166  -0.811   3.803
   88EH     H0F 2264   4.076  -0.820   3.864
   88EH     C0G 2265   4.246  -0.712   3.890
   88EH     H0H 2266   4.254  -0.752   3.991
   88EH     H0I 2267   4.186  -0.621   3.901
   88EH     C0J 2268   4.385  -0.672   3.840
   88EH     H0K 2269   4.457  -0.753   3.853
   88EH     H0M 2270   4.422  -0.587   3.897
   88EH     H0N 2271   4.385  -0.643   3.735
   88EH     C0O 2272   4.120  -0.753   3.667
   88EH     H0P 2273   4.171  -0.659   3.646
   88EH     H0Q 2274   4.150  -0.818   3.585
   88EH     C0R 2275   3.967  -0.731   3.655
   88EH     H0S 2276   3.913  -0.775   3.740
   88EH     H0T 2277   3.929  -0.784   3.568
   88EH     C0U 2278   3.925  -0.583   3.647
   88EH     H0V 2279   3.958  -0.532   3.738
   88EH     H0W 2280   3.976  -0.534   3.564
   88EH     C0X 2281   3.773  -0.567   3.631
   88EH     H0Y 2282   3.743  -0.464   3.649
   88EH     H0Z 2283   3.719  -0.630   3.702
   88EH     H10 2284   3.741  -0.595   3.531
   89LA     H00 2285   3.639  -0.893   3.949
   89LA     C01 2286   3.686  -0.922   4.043
   89LA     H02 2287   3.644  -0.875   4.132
   89LA     H03 2288   3.666  -1.028   4.058
   89LA     C04 2289   3.829  -0.877   4.047
   89LA     C05 2290   3.820  -0.710   4.079
   89LA     H06 2291   3.881  -0.711   4.169
   89LA     H07 2292   3.887  -0.673   4.003
   89LA     C08 2293   3.903  -0.944   4.156
   89LA     O09 2294   4.004  -0.900   4.212
   89LA     O0A 2295   3.840  -1.055   4.200
   89LA     C0B 2296   3.805  -1.069   4.336
   89LA     H0C 2297   3.696  -1.080   4.339
   89LA     H0D 2298   3.828  -0.978   4.390
   89LA     C0E 2299   3.870  -1.189   4.407
   89LA     H0F 2300   3.978  -1.175   4.405
   89LA     H0G 2301   3.842  -1.186   4.512
   89LA     C0H 2302   3.832  -1.329   4.352
   89LA     H0I 2303   3.725  -1.347   4.361
   89LA     H0J 2304   3.852  -1.333   4.245
   89LA     C0K 2305   3.911  -1.442   4.423
   89LA     H0M 2306   4.003  -1.400   4.462
   89LA     H0N 2307   3.856  -1.478   4.510
   89LA     C0O 2308   3.952  -1.558   4.331
   89LA     H0P 2309   3.988  -1.520   4.236
   89LA     H0Q 2310   4.038  -1.607   4.377
   89LA     C0R 2311   3.845  -1.666   4.309
   89LA     H0S 2312   3.811  -1.704   4.405
   89LA     H0T 2313   3.757  -1.624   4.260
   89LA     C0U 2314   3.900  -1.783   4.225
   89LA     H0V 2315   3.902  -1.753   4.120
   89LA     H0W 2316   4.004  -1.800   4.251
   89LA     C0X 2317   3.825  -1.916   4.239
   89LA     H0Y 2318   3.717  -1.902   4.224
   89LA     H0Z 2319   3.856  -1.979   4.156
   89LA     C10 2320   3.857  -1.993   4.369
   89LA     H11 2321   3.949  -1.956   4.413
   89LA     H12 2322   3.879  -2.096   4.343
   89LA     C13 2323   3.743  -1.995   4.473
   89LA     H14 2324   3.714  -2.098   4.492
   89LA     H15 2325   3.654  -1.947   4.433
   89LA     C16 2326   3.778  -1.928   4.607
   89LA     H17 2327   3.687  -1.916   4.666
   89LA     H18 2328   3.816  -1.827   4.590
   89LA     C19 2329   3.880  -2.006   4.691
   89LA     H1A 2330   3.843  -2.106   4.715
   89LA     H1B 2331   3.900  -1.955   4.785
   89LA     H1C 2332   3.975  -2.018   4.639
   90EH     H00 2333   3.876  -0.379   4.266
   90EH     C01 2334   3.871  -0.478   4.222
   90EH     H02 2335   3.959  -0.485   4.157
   90EH     H03 2336   3.885  -0.547   4.305
   90EH     C04 2337   3.739  -0.503   4.146
   90EH     C05 2338   3.634  -0.392   4.220
   90EH     H06 2339   3.538  -0.404   4.171
   90EH     H07 2340   3.643  -0.412   4.326
   90EH     C08 2341   3.733  -0.470   4.005
   90EH     O09 2342   3.830  -0.441   3.935
   90EH     O0A 2343   3.609  -0.477   3.959
   90EH     C0B 2344   3.549  -0.604   3.939
   90EH     H0C 2345   3.622  -0.684   3.944
   90EH     H0D 2346   3.521  -0.602   3.834
   90EH     C0E 2347   3.425  -0.633   4.029
   90EH     H0F 2348   3.382  -0.537   4.055
   90EH     C0G 2349   3.323  -0.711   3.944
   90EH     H0H 2350   3.289  -0.645   3.864
   90EH     H0I 2351   3.235  -0.733   4.004
   90EH     C0J 2352   3.377  -0.841   3.879
   90EH     H0K 2353   3.458  -0.822   3.809
   90EH     H0M 2354   3.298  -0.891   3.822
   90EH     H0N 2355   3.412  -0.914   3.952
   90EH     C0O 2356   3.455  -0.709   4.162
   90EH     H0P 2357   3.459  -0.815   4.137
   90EH     H0Q 2358   3.553  -0.681   4.201
   90EH     C0R 2359   3.354  -0.702   4.278
   90EH     H0S 2360   3.279  -0.625   4.260
   90EH     H0T 2361   3.407  -0.671   4.368
   90EH     C0U 2362   3.287  -0.839   4.306
   90EH     H0V 2363   3.220  -0.864   4.223
   90EH     H0W 2364   3.362  -0.918   4.310
   90EH     C0X 2365   3.209  -0.843   4.438
   90EH     H0Y 2366   3.154  -0.936   4.447
   90EH     H0Z 2367   3.137  -0.761   4.445
   90EH     H10 2368   3.276  -0.836   4.524
   91EH     H00 2369   3.551  -0.109   4.050
   91EH     C01 2370   3.630  -0.147   4.114
   91EH     H02 2371   3.674  -0.233   4.063
   91EH     H03 2372   3.718  -0.083   4.106
   91EH     C04 2373   3.588  -0.171   4.259
   91EH     C05 2374   3.469  -0.055   4.305
   91EH     H06 2375   3.442  -0.090   4.404
   91EH     H07 2376   3.399  -0.055   4.223
   91EH     C08 2377   3.694  -0.157   4.360
   91EH     O09 2378   3.678  -0.171   4.481
   91EH     O0A 2379   3.811  -0.110   4.307
   91EH     C0B 2380   3.878  -0.001   4.368
   91EH     H0C 2381   3.944  -0.036   4.447
   91EH     H0D 2382   3.805   0.061   4.420
   91EH     C0E 2383   3.956   0.089   4.267
   91EH     H0F 2384   3.975   0.180   4.324
   91EH     C0G 2385   3.882   0.141   4.140
   91EH     H0H 2386   3.904   0.079   4.052
   91EH     H0I 2387   3.921   0.240   4.119
   91EH     C0J 2388   3.732   0.156   4.140
   91EH     H0K 2389   3.685   0.111   4.052
   91EH     H0M 2390   3.684   0.116   4.229
   91EH     H0N 2391   3.707   0.261   4.125
   91EH     C0O 2392   4.098   0.032   4.235
   91EH     H0P 2393   4.171   0.088   4.293
   91EH     H0Q 2394   4.102  -0.069   4.275
   91EH     C0R 2395   4.147   0.024   4.088
   91EH     H0S 2396   4.079  -0.036   4.028
   91EH     H0T 2397   4.239  -0.034   4.089
   91EH     C0U 2398   4.178   0.158   4.018
   91EH     H0V 2399   4.086   0.213   3.995
   91EH     H0W 2400   4.235   0.223   4.084
   91EH     C0X 2401   4.252   0.140   3.885
   91EH     H0Y 2402   4.264   0.235   3.834
   91EH     H0Z 2403   4.196   0.074   3.818
   91EH     H10 2404   4.350   0.096   3.901
   92ST     H00 2405   3.503   0.067   4.544
   92ST     C01 2406   3.510   0.155   4.480
   92ST     H02 2407   3.507   0.244   4.544
   92ST     H03 2408   3.612   0.155   4.440
   92ST     C04 2409   3.409   0.162   4.363
   92ST     C05 2410   3.280   0.264   4.406
   92ST     H06 2411   3.260   0.227   4.505
   92ST     H07 2412   3.205   0.248   4.330
   92ST     C08 2413   3.464   0.242   4.253
   92ST     O09 2414   3.432   0.231   4.135
   92ST     O0A 2415   3.548   0.340   4.304
   92ST     C0B 2416   3.597   0.455   4.232
   92ST     H0C 2417   3.603   0.433   4.125
   92ST     H0D 2418   3.529   0.540   4.236
   92ST     C0E 2419   3.734   0.498   4.290
   92ST     H0F 2420   3.783   0.570   4.224
   92ST     H0G 2421   3.798   0.411   4.291
   92ST     C0H 2422   3.728   0.555   4.433
   92ST     H0I 2423   3.826   0.537   4.478
   92ST     H0J 2424   3.658   0.495   4.492
   92ST     C0K 2425   3.697   0.706   4.447
   92ST     H0M 2426   3.785   0.765   4.419
   92ST     H0N 2427   3.619   0.735   4.377
   92ST     C0O 2428   3.650   0.744   4.590
   92ST     H0P 2429   3.655   0.658   4.657
   92ST     H0Q 2430   3.543   0.764   4.586
   92ST     C0R 2431   3.716   0.864   4.663
   92ST     H0S 2432   3.691   0.855   4.768
   92ST     H0T 2433   3.667   0.956   4.631
   92ST     C0U 2434   3.869   0.886   4.651
   92ST     H0V 2435   3.899   0.955   4.730
   92ST     H0W 2436   3.891   0.938   4.558
   92ST     C0X 2437   3.960   0.762   4.660
   92ST     H0Y 2438   3.948   0.700   4.571
   92ST     H0Z 2439   4.063   0.796   4.656
   92ST     C10 2440   3.942   0.678   4.787
   92ST     H11 2441   4.036   0.681   4.843
   92ST     H12 2442   3.869   0.726   4.853
   92ST     C13 2443   3.902   0.532   4.761
   92ST     H14 2444   3.816   0.532   4.694
   92ST     H15 2445   3.865   0.487   4.853
   92ST     C16 2446   4.013   0.442   4.706
   92ST     H17 2447   4.076   0.498   4.637
   92ST     H18 2448   4.080   0.416   4.789
   92ST     C19 2449   3.964   0.314   4.632
   92ST     H1A 2450   3.952   0.341   4.527
   92ST     H1B 2451   4.043   0.239   4.631
   92ST     C1C 2452   3.831   0.251   4.679
   92ST     H1D 2453   3.762   0.325   4.720
   92ST     H1E 2454   3.779   0.217   4.590
   92ST     C1F 2455   3.839   0.130   4.774
   92ST     H1G 2456   3.736   0.103   4.797
   92ST     H1H 2457   3.877   0.043   4.720
   92ST     C1I 2458   3.911   0.152   4.908
   92ST     H1J 2459   3.876   0.077   4.979
   92ST     H1K 2460   3.881   0.248   4.950
   92ST     C1M 2461   4.063   0.137   4.910
   92ST     H1N 2462   4.099   0.161   5.010
   92ST     H1O 2463   4.110   0.211   4.845
   92ST     C1P 2464   4.112  -0.004   4.873
   92ST     H1Q 2465   4.099  -0.071   4.958
   92ST     H1R 2466   4.052  -0.047   4.793
   92ST     C1S 2467   4.257  -0.003   4.827
   92ST     H1T 2468   4.289  -0.103   4.796
   92ST     H1U 2469   4.324   0.030   4.907
   92ST     H1V 2470   4.270   0.063   4.742
   93EH     H00 2471   3.314   0.546   4.280
   93EH     C01 2472   3.322   0.545   4.389
   93EH     H02 2473   3.416   0.497   4.419
   93EH     H03 2474   3.337   0.647   4.425
   93EH     C04 2475   3.204   0.475   4.456
   93EH     C05 2476   3.073   0.584   4.439
   93EH     H06 2477   3.138   0.657   4.485
   93EH     H07 2478   3.059   0.585   4.332
   93EH     C08 2479   3.256   0.474   4.597
   93EH     O09 2480   3.349   0.404   4.639
   93EH     O0A 2481   3.200   0.564   4.682
   93EH     C0B 2482   3.188   0.533   4.823
   93EH     H0C 2483   3.156   0.622   4.876
   93EH     H0D 2484   3.284   0.507   4.867
   93EH     C0E 2485   3.081   0.421   4.836
   93EH     H0F 2486   3.067   0.415   4.728
   93EH     C0G 2487   3.117   0.271   4.821
   93EH     H0H 2488   3.207   0.250   4.878
   93EH     H0I 2489   3.151   0.247   4.720
   93EH     C0J 2490   3.008   0.169   4.854
   93EH     H0K 2491   2.973   0.178   4.957
   93EH     H0M 2492   2.923   0.178   4.786
   93EH     H0N 2493   3.046   0.068   4.841
   93EH     C0O 2494   2.937   0.467   4.863
   93EH     H0P 2495   2.881   0.390   4.917
   93EH     H0Q 2496   2.938   0.550   4.933
   93EH     C0R 2497   2.868   0.514   4.731
   93EH     H0S 2498   2.926   0.601   4.701
   93EH     H0T 2499   2.770   0.556   4.755
   93EH     C0U 2500   2.867   0.417   4.608
   93EH     H0V 2501   2.967   0.392   4.569
   93EH     H0W 2502   2.830   0.317   4.630
   93EH     C0X 2503   2.800   0.465   4.481
   93EH     H0Y 2504   2.824   0.391   4.405
   93EH     H0Z 2505   2.834   0.561   4.442
   93EH     H10 2506   2.692   0.478   4.491
   94ST     H00 2507   3.138   0.851   4.404
   94ST     C01 2508   3.031   0.865   4.389
   94ST     H02 2509   3.014   0.969   4.419
   94ST     H03 2510   3.009   0.856   4.283
   94ST     C04 2511   2.944   0.772   4.475
   94ST     C05 2512   2.790   0.834   4.444
   94ST     H06 2513   2.812   0.916   4.510
   94ST     H07 2514   2.734   0.757   4.495
   94ST     C08 2515   2.990   0.815   4.617
   94ST     O09 2516   3.109   0.830   4.645
   94ST     O0A 2517   2.895   0.847   4.721
   94ST     C0B 2518   2.926   0.943   4.832
   94ST     H0C 2519   3.021   0.991   4.805
   94ST     H0D 2520   2.857   1.027   4.826
   94ST     C0E 2521   2.948   0.908   4.988
   94ST     H0F 2522   3.039   0.961   5.015
   94ST     H0G 2523   2.978   0.804   5.000
   94ST     C0H 2524   2.853   0.948   5.109
   94ST     H0I 2525   2.912   0.987   5.192
   94ST     H0J 2526   2.813   0.856   5.151
   94ST     C0K 2527   2.731   1.043   5.092
   94ST     H0M 2528   2.699   1.041   4.988
   94ST     H0N 2529   2.649   0.999   5.149
   94ST     C0O 2530   2.743   1.188   5.147
   94ST     H0P 2531   2.846   1.224   5.143
   94ST     H0Q 2532   2.717   1.190   5.253
   94ST     C0R 2533   2.649   1.285   5.073
   94ST     H0S 2534   2.638   1.378   5.130
   94ST     H0T 2535   2.549   1.244   5.067
   94ST     C0U 2536   2.699   1.320   4.932
   94ST     H0V 2537   2.618   1.365   4.875
   94ST     H0W 2538   2.723   1.228   4.877
   94ST     C0X 2539   2.823   1.411   4.932
   94ST     H0Y 2540   2.857   1.432   5.033
   94ST     H0Z 2541   2.906   1.356   4.886
   94ST     C10 2542   2.802   1.542   4.856
   94ST     H11 2543   2.899   1.588   4.834
   94ST     H12 2544   2.759   1.519   4.758
   94ST     C13 2545   2.712   1.644   4.928
   94ST     H14 2546   2.688   1.721   4.855
   94ST     H15 2547   2.616   1.599   4.954
   94ST     C16 2548   2.776   1.714   5.050
   94ST     H17 2549   2.885   1.715   5.040
   94ST     H18 2550   2.745   1.818   5.045
   94ST     C19 2551   2.737   1.657   5.187
   94ST     H1A 2552   2.642   1.603   5.178
   94ST     H1B 2553   2.809   1.581   5.218
   94ST     C1C 2554   2.717   1.761   5.300
   94ST     H1D 2555   2.630   1.823   5.277
   94ST     H1E 2556   2.689   1.706   5.389
   94ST     C1F 2557   2.838   1.850   5.336
   94ST     H1G 2558   2.824   1.883   5.439
   94ST     H1H 2559   2.930   1.791   5.338
   94ST     C1I 2560   2.853   1.976   5.249
   94ST     H1J 2561   2.851   2.065   5.312
   94ST     H1K 2562   2.766   1.988   5.184
   94ST     C1M 2563   2.981   1.977   5.163
   94ST     H1N 2564   2.963   2.033   5.072
   94ST     H1O 2565   3.006   1.876   5.132
   94ST     C1P 2566   3.101   2.039   5.237
   94ST     H1Q 2567   3.082   2.144   5.255
   94ST     H1R 2568   3.113   1.992   5.334
   94ST     C1S 2569   3.231   2.024   5.157
   94ST     H1T 2570   3.314   2.072   5.209
   94ST     H1U 2571   3.223   2.070   5.058
   94ST     H1V 2572   3.257   1.919   5.143
   95EH     H00 2573   2.520   0.779   4.347
   95EH     C01 2574   2.513   0.857   4.422
   95EH     H02 2575   2.410   0.892   4.424
   95EH     H03 2576   2.524   0.793   4.510
   95EH     C04 2577   2.613   0.976   4.421
   95EH     C05 2578   2.548   1.103   4.327
   95EH     H06 2579   2.620   1.113   4.248
   95EH     H07 2580   2.556   1.187   4.395
   95EH     C08 2581   2.603   1.021   4.569
   95EH     O09 2582   2.667   1.116   4.612
   95EH     O0A 2583   2.509   0.951   4.660
   95EH     C0B 2584   2.464   0.996   4.794
   95EH     H0C 2585   2.387   1.073   4.780
   95EH     H0D 2586   2.547   1.051   4.839
   95EH     C0E 2587   2.409   0.894   4.907
   95EH     H0F 2588   2.493   0.828   4.927
   95EH     C0G 2589   2.376   0.956   5.049
   95EH     H0H 2590   2.444   1.038   5.073
   95EH     H0I 2591   2.400   0.881   5.124
   95EH     C0J 2592   2.232   1.004   5.084
   95EH     H0K 2593   2.219   1.008   5.192
   95EH     H0M 2594   2.152   0.938   5.050
   95EH     H0N 2595   2.209   1.103   5.047
   95EH     C0O 2596   2.291   0.798   4.868
   95EH     H0P 2597   2.205   0.859   4.841
   95EH     H0Q 2598   2.320   0.745   4.777
   95EH     C0R 2599   2.247   0.693   4.976
   95EH     H0S 2600   2.227   0.739   5.073
   95EH     H0T 2601   2.328   0.623   4.997
   95EH     C0U 2602   2.119   0.616   4.941
   95EH     H0V 2603   2.076   0.571   5.031
   95EH     H0W 2604   2.042   0.683   4.903
   95EH     C0X 2605   2.144   0.503   4.842
   95EH     H0Y 2606   2.051   0.461   4.803
   95EH     H0Z 2607   2.200   0.422   4.889
   95EH     H10 2608   2.201   0.539   4.756
   96ST     H00 2609   2.206   1.220   4.359
   96ST     C01 2610   2.271   1.143   4.318
   96ST     H02 2611   2.319   1.094   4.403
   96ST     H03 2612   2.207   1.068   4.272
   96ST     C04 2613   2.370   1.196   4.213
   96ST     C05 2614   2.298   1.342   4.148
   96ST     H06 2615   2.382   1.379   4.091
   96ST     H07 2616   2.263   1.394   4.236
   96ST     C08 2617   2.409   1.094   4.110
   96ST     O09 2618   2.424   1.117   3.991
   96ST     O0A 2619   2.424   0.963   4.165
   96ST     C0B 2620   2.466   0.839   4.098
   96ST     H0C 2621   2.398   0.765   4.140
   96ST     H0D 2622   2.442   0.845   3.991
   96ST     C0E 2623   2.613   0.782   4.119
   96ST     H0F 2624   2.659   0.813   4.213
   96ST     H0G 2625   2.678   0.837   4.051
   96ST     C0H 2626   2.645   0.628   4.100
   96ST     H0I 2627   2.740   0.609   4.152
   96ST     H0J 2628   2.673   0.615   3.996
   96ST     C0K 2629   2.546   0.509   4.134
   96ST     H0M 2630   2.444   0.543   4.149
   96ST     H0N 2631   2.545   0.444   4.047
   96ST     C0O 2632   2.588   0.418   4.252
   96ST     H0P 2633   2.553   0.464   4.345
   96ST     H0Q 2634   2.697   0.417   4.251
   96ST     C0R 2635   2.550   0.267   4.256
   96ST     H0S 2636   2.588   0.223   4.348
   96ST     H0T 2637   2.604   0.214   4.177
   96ST     C0U 2638   2.401   0.231   4.245
   96ST     H0V 2639   2.391   0.124   4.227
   96ST     H0W 2640   2.363   0.279   4.154
   96ST     C0X 2641   2.312   0.272   4.364
   96ST     H0Y 2642   2.351   0.361   4.413
   96ST     H0Z 2643   2.218   0.305   4.321
   96ST     C10 2644   2.276   0.160   4.465
   96ST     H11 2645   2.171   0.172   4.493
   96ST     H12 2646   2.281   0.063   4.416
   96ST     C13 2647   2.357   0.153   4.596
   96ST     H14 2648   2.326   0.062   4.648
   96ST     H15 2649   2.462   0.135   4.575
   96ST     C16 2650   2.330   0.269   4.695
   96ST     H17 2651   2.229   0.306   4.680
   96ST     H18 2652   2.332   0.231   4.797
   96ST     C19 2653   2.427   0.386   4.689
   96ST     H1A 2654   2.411   0.445   4.599
   96ST     H1B 2655   2.410   0.456   4.771
   96ST     C1C 2656   2.573   0.347   4.694
   96ST     H1D 2657   2.604   0.280   4.613
   96ST     H1E 2658   2.619   0.443   4.671
   96ST     C1F 2659   2.637   0.310   4.828
   96ST     H1G 2660   2.740   0.283   4.806
   96ST     H1H 2661   2.647   0.401   4.887
   96ST     C1I 2662   2.590   0.188   4.908
   96ST     H1J 2663   2.677   0.126   4.928
   96ST     H1K 2664   2.525   0.125   4.848
   96ST     C1M 2665   2.527   0.223   5.044
   96ST     H1N 2666   2.523   0.131   5.102
   96ST     H1O 2667   2.423   0.253   5.030
   96ST     C1P 2668   2.603   0.330   5.126
   96ST     H1Q 2669   2.605   0.301   5.231
   96ST     H1R 2670   2.707   0.335   5.096
   96ST     C1S 2671   2.538   0.470   5.117
   96ST     H1T 2672   2.604   0.547   5.158
   96ST     H1U 2673   2.445   0.473   5.173
   96ST     H1V 2674   2.514   0.499   5.015
   97EH     H00 2675   2.323   1.475   3.905
   97EH     C01 2676   2.230   1.419   3.900
   97EH     H02 2677   2.181   1.432   3.803
   97EH     H03 2678   2.256   1.313   3.904
   97EH     C04 2679   2.136   1.456   4.011
   97EH     C05 2680   2.051   1.604   3.962
   97EH     H06 2681   1.963   1.610   4.026
   97EH     H07 2682   2.104   1.645   3.877
   97EH     C08 2683   2.031   1.354   4.026
   97EH     O09 2684   1.916   1.369   3.985
   97EH     O0A 2685   2.074   1.236   4.076
   97EH     C0B 2686   1.993   1.118   4.068
   97EH     H0C 2687   2.055   1.033   4.096
   97EH     H0D 2688   1.968   1.102   3.963
   97EH     C0E 2689   1.865   1.123   4.155
   97EH     H0F 2690   1.804   1.205   4.118
   97EH     C0G 2691   1.774   0.999   4.134
   97EH     H0H 2692   1.767   0.977   4.028
   97EH     H0I 2693   1.673   1.026   4.164
   97EH     C0J 2694   1.815   0.872   4.210
   97EH     H0K 2695   1.749   0.790   4.184
   97EH     H0M 2696   1.807   0.886   4.318
   97EH     H0N 2697   1.917   0.842   4.188
   97EH     C0O 2698   1.893   1.151   4.304
   97EH     H0P 2699   1.810   1.114   4.365
   97EH     H0Q 2700   1.981   1.095   4.335
   97EH     C0R 2701   1.911   1.300   4.335
   97EH     H0S 2702   1.823   1.356   4.304
   97EH     H0T 2703   1.994   1.341   4.277
   97EH     C0U 2704   1.941   1.328   4.483
   97EH     H0V 2705   1.849   1.320   4.541
   97EH     H0W 2706   2.010   1.253   4.521
   97EH     C0X 2707   2.004   1.467   4.502
   97EH     H0Y 2708   2.020   1.488   4.607
   97EH     H0Z 2709   1.941   1.545   4.461
   97EH     H10 2710   2.101   1.473   4.452
   98LA     H00 2711   1.686   1.686   3.842
   98LA     C01 2712   1.777   1.670   3.899
   98LA     H02 2713   1.759   1.697   4.003
   98LA     H03 2714   1.792   1.562   3.892
   98LA     C04 2715   1.894   1.745   3.835
   98LA     C05 2716   1.816   1.902   3.798
   98LA     H06 2717   1.731   1.905   3.864
   98LA     H07 2718   1.839   1.892   3.693
   98LA     C08 2719   1.937   1.685   3.706
   98LA     O09 2720   1.900   1.575   3.667
   98LA     O0A 2721   2.025   1.758   3.634
   98LA     C0B 2722   2.005   1.782   3.493
   98LA     H0C 2723   2.069   1.865   3.466
   98LA     H0D 2724   1.904   1.822   3.486
   98LA     C0E 2725   2.012   1.672   3.382
   98LA     H0F 2726   1.911   1.633   3.367
   98LA     H0G 2727   2.034   1.721   3.287
   98LA     C0H 2728   2.105   1.550   3.396
   98LA     H0I 2729   2.113   1.522   3.502
   98LA     H0J 2730   2.052   1.464   3.354
   98LA     C0K 2731   2.240   1.556   3.321
   98LA     H0M 2732   2.234   1.491   3.234
   98LA     H0N 2733   2.258   1.655   3.280
   98LA     C0O 2734   2.362   1.513   3.404
   98LA     H0P 2735   2.346   1.415   3.449
   98LA     H0Q 2736   2.447   1.501   3.337
   98LA     C0R 2737   2.400   1.617   3.511
   98LA     H0S 2738   2.508   1.632   3.512
   98LA     H0T 2739   2.357   1.714   3.484
   98LA     C0U 2740   2.355   1.577   3.651
   98LA     H0V 2741   2.248   1.553   3.647
   98LA     H0W 2742   2.406   1.487   3.684
   98LA     C0X 2743   2.369   1.691   3.752
   98LA     H0Y 2744   2.342   1.785   3.704
   98LA     H0Z 2745   2.296   1.682   3.832
   98LA     C10 2746   2.506   1.695   3.820
   98LA     H11 2747   2.584   1.663   3.751
   98LA     H12 2748   2.508   1.622   3.901
   98LA     C13 2749   2.535   1.835   3.875
   98LA     H14 2750   2.614   1.829   3.950
   98LA     H15 2751   2.447   1.871   3.927
   98LA     C16 2752   2.575   1.933   3.764
   98LA     H17 2753   2.565   2.035   3.801
   98LA     H18 2754   2.507   1.926   3.679
   98LA     C19 2755   2.719   1.911   3.715
   98LA     H1A 2756   2.791   1.925   3.796
   98LA     H1B 2757   2.744   1.981   3.635
   98LA     H1C 2758   2.733   1.811   3.675
   99EH     H00 2759   1.503   1.976   3.577
   99EH     C01 2760   1.583   1.947   3.644
   99EH     H02 2761   1.538   1.907   3.735
   99EH     H03 2762   1.634   1.866   3.592
   99EH     C04 2763   1.679   2.063   3.673
   99EH     C05 2764   1.570   2.204   3.660
   99EH     H06 2765   1.612   2.225   3.562
   99EH     H07 2766   1.473   2.165   3.685
   99EH     C08 2767   1.783   2.081   3.568
   99EH     O09 2768   1.901   2.104   3.594
   99EH     O0A 2769   1.737   2.061   3.438
   99EH     C0B 2770   1.830   2.040   3.327
   99EH     H0C 2771   1.822   1.934   3.302
   99EH     H0D 2772   1.933   2.055   3.359
   99EH     C0E 2773   1.808   2.120   3.194
   99EH     H0F 2774   1.708   2.097   3.158
   99EH     C0G 2775   1.812   2.271   3.219
   99EH     H0H 2776   1.731   2.290   3.290
   99EH     H0I 2777   1.785   2.326   3.128
   99EH     C0J 2778   1.940   2.328   3.280
   99EH     H0K 2779   1.930   2.333   3.388
   99EH     H0M 2780   1.958   2.429   3.244
   99EH     H0N 2781   2.028   2.268   3.257
   99EH     C0O 2782   1.908   2.076   3.082
   99EH     H0P 2783   2.008   2.067   3.122
   99EH     H0Q 2784   1.881   1.975   3.053
   99EH     C0R 2785   1.912   2.161   2.951
   99EH     H0S 2786   1.818   2.214   2.935
   99EH     H0T 2787   1.919   2.093   2.867
   99EH     C0U 2788   2.031   2.261   2.942
   99EH     H0V 2789   1.993   2.362   2.934
   99EH     H0W 2790   2.089   2.260   3.034
   99EH     C0X 2791   2.126   2.233   2.824
   99EH     H0Y 2792   2.211   2.301   2.826
   99EH     H0Z 2793   2.076   2.247   2.728
   99EH     H10 2794   2.166   2.132   2.827
  100EH     H00 2795   1.606   2.462   3.712
  100EH     C01 2796   1.590   2.471   3.605
  100EH     H02 2797   1.591   2.578   3.582
  100EH     H03 2798   1.678   2.432   3.555
  100EH     C04 2799   1.461   2.397   3.565
  100EH     C05 2800   1.343   2.523   3.574
  100EH     H06 2801   1.402   2.589   3.512
  100EH     H07 2802   1.266   2.461   3.532
  100EH     C08 2803   1.462   2.370   3.414
  100EH     O09 2804   1.555   2.415   3.347
  100EH     O0A 2805   1.352   2.311   3.342
  100EH     C0B 2806   1.360   2.300   3.192
  100EH     H0C 2807   1.430   2.219   3.169
  100EH     H0D 2808   1.414   2.389   3.161
  100EH     C0E 2809   1.238   2.292   3.086
  100EH     H0F 2810   1.151   2.332   3.138
  100EH     C0G 2811   1.259   2.389   2.962
  100EH     H0H 2812   1.313   2.479   2.991
  100EH     H0I 2813   1.162   2.428   2.931
  100EH     C0J 2814   1.325   2.332   2.833
  100EH     H0K 2815   1.341   2.410   2.759
  100EH     H0M 2816   1.262   2.258   2.782
  100EH     H0N 2817   1.421   2.285   2.852
  100EH     C0O 2818   1.198   2.151   3.028
  100EH     H0P 2819   1.283   2.111   2.973
  100EH     H0Q 2820   1.183   2.080   3.110
  100EH     C0R 2821   1.071   2.144   2.935
  100EH     H0S 2822   1.051   2.240   2.888
  100EH     H0T 2823   0.982   2.126   2.996
  100EH     C0U 2824   1.075   2.040   2.818
  100EH     H0V 2825   1.084   2.093   2.723
  100EH     H0W 2826   1.163   1.976   2.824
  100EH     C0X 2827   0.950   1.950   2.807
  100EH     H0Y 2828   0.956   1.885   2.719
  100EH     H0Z 2829   0.858   2.008   2.797
  100EH     H10 2830   0.940   1.885   2.893
  101ST     H00 2831   1.130   2.616   3.701
  101ST     C01 2832   1.094   2.633   3.600
  101ST     H02 2833   1.061   2.539   3.557
  101ST     H03 2834   1.004   2.693   3.607
  101ST     C04 2835   1.204   2.699   3.515
  101ST     C05 2836   1.157   2.861   3.530
  101ST     H06 2837   1.080   2.853   3.454
  101ST     H07 2838   1.146   2.863   3.637
  101ST     C08 2839   1.186   2.672   3.369
  101ST     O09 2840   1.149   2.565   3.321
  101ST     O0A 2841   1.208   2.784   3.290
  101ST     C0B 2842   1.149   2.806   3.159
  101ST     H0C 2843   1.230   2.849   3.100
  101ST     H0D 2844   1.120   2.714   3.109
  101ST     C0E 2845   1.036   2.913   3.155
  101ST     H0F 2846   1.048   2.978   3.068
  101ST     H0G 2847   1.050   2.981   3.239
  101ST     C0H 2848   0.888   2.866   3.157
  101ST     H0I 2849   0.825   2.954   3.173
  101ST     H0J 2850   0.872   2.798   3.240
  101ST     C0K 2851   0.826   2.808   3.031
  101ST     H0M 2852   0.890   2.727   2.996
  101ST     H0N 2853   0.731   2.761   3.057
  101ST     C0O 2854   0.797   2.918   2.926
  101ST     H0P 2855   0.882   2.986   2.919
  101ST     H0Q 2856   0.715   2.980   2.960
  101ST     C0R 2857   0.765   2.864   2.786
  101ST     H0S 2858   0.765   2.947   2.714
  101ST     H0T 2859   0.663   2.826   2.785
  101ST     C0U 2860   0.860   2.752   2.738
  101ST     H0V 2861   0.839   2.728   2.634
  101ST     H0W 2862   0.834   2.662   2.793
  101ST     C0X 2863   1.012   2.778   2.757
  101ST     H0Y 2864   1.035   2.819   2.856
  101ST     H0Z 2865   1.061   2.681   2.756
  101ST     C10 2866   1.076   2.866   2.649
  101ST     H11 2867   1.181   2.838   2.637
  101ST     H12 2868   1.029   2.844   2.553
  101ST     C13 2869   1.067   3.017   2.679
  101ST     H14 2870   1.068   3.072   2.585
  101ST     H15 2871   0.970   3.039   2.725
  101ST     C16 2872   1.182   3.069   2.766
  101ST     H17 2873   1.214   2.991   2.836
  101ST     H18 2874   1.269   3.085   2.702
  101ST     C19 2875   1.151   3.195   2.850
  101ST     H1A 2876   1.110   3.161   2.945
  101ST     H1B 2877   1.245   3.243   2.878
  101ST     C1C 2878   1.053   3.300   2.793
  101ST     H1D 2879   0.987   3.260   2.715
  101ST     H1E 2880   0.985   3.326   2.874
  101ST     C1F 2881   1.115   3.432   2.745
  101ST     H1G 2882   1.034   3.505   2.739
  101ST     H1H 2883   1.182   3.471   2.821
  101ST     C1I 2884   1.184   3.428   2.607
  101ST     H1J 2885   1.179   3.527   2.562
  101ST     H1K 2886   1.127   3.363   2.541
  101ST     C1M 2887   1.330   3.383   2.613
  101ST     H1N 2888   1.365   3.362   2.511
  101ST     H1O 2889   1.336   3.287   2.665
  101ST     C1P 2890   1.426   3.484   2.679
  101ST     H1Q 2891   1.464   3.553   2.603
  101ST     H1R 2892   1.373   3.547   2.751
  101ST     C1S 2893   1.542   3.415   2.751
  101ST     H1T 2894   1.609   3.488   2.795
  101ST     H1U 2895   1.600   3.353   2.682
  101ST     H1V 2896   1.505   3.351   2.831
  102EH     H00 2897   0.997   3.162   3.701
  102EH     C01 2898   1.050   3.073   3.667
  102EH     H02 2899   1.155   3.093   3.685
  102EH     H03 2900   1.013   2.995   3.734
  102EH     C04 2901   1.020   3.038   3.521
  102EH     C05 2902   1.005   3.180   3.446
  102EH     H06 2903   0.986   3.163   3.341
  102EH     H07 2904   1.096   3.232   3.471
  102EH     C08 2905   0.878   2.993   3.506
  102EH     O09 2906   0.826   2.977   3.397
  102EH     O0A 2907   0.794   3.010   3.615
  102EH     C0B 2908   0.647   3.006   3.601
  102EH     H0C 2909   0.607   2.943   3.681
  102EH     H0D 2910   0.617   2.955   3.510
  102EH     C0E 2911   0.575   3.145   3.606
  102EH     H0F 2912   0.646   3.206   3.664
  102EH     C0G 2913   0.558   3.202   3.464
  102EH     H0H 2914   0.656   3.190   3.417
  102EH     H0I 2915   0.534   3.308   3.468
  102EH     C0J 2916   0.460   3.135   3.368
  102EH     H0K 2917   0.437   3.201   3.284
  102EH     H0M 2918   0.366   3.107   3.416
  102EH     H0N 2919   0.502   3.045   3.323
  102EH     C0O 2920   0.446   3.162   3.690
  102EH     H0P 2921   0.361   3.118   3.637
  102EH     H0Q 2922   0.456   3.105   3.782
  102EH     C0R 2923   0.411   3.309   3.732
  102EH     H0S 2924   0.432   3.378   3.650
  102EH     H0T 2925   0.477   3.341   3.812
  102EH     C0U 2926   0.263   3.329   3.773
  102EH     H0V 2927   0.212   3.389   3.698
  102EH     H0W 2928   0.211   3.233   3.773
  102EH     C0X 2929   0.242   3.395   3.911
  102EH     H0Y 2930   0.136   3.396   3.936
  102EH     H0Z 2931   0.276   3.498   3.914
  102EH     H10 2932   0.293   3.340   3.990
  103LA     H00 2933   0.718   3.372   3.568
  103LA     C01 2934   0.826   3.361   3.578
  103LA     H02 2935   0.852   3.450   3.635
  103LA     H03 2936   0.846   3.275   3.643
  103LA     C04 2937   0.894   3.359   3.441
  103LA     C05 2938   0.790   3.416   3.342
  103LA     H06 2939   0.842   3.451   3.254
  103LA     H07 2940   0.715   3.344   3.314
  103LA     C08 2941   1.002   3.465   3.455
  103LA     O09 2942   1.084   3.466   3.547
  103LA     O0A 2943   0.998   3.572   3.365
  103LA     C0B 2944   0.999   3.715   3.399
  103LA     H0C 2945   0.937   3.742   3.485
  103LA     H0D 2946   0.943   3.749   3.312
  103LA     C0E 2947   1.115   3.817   3.378
  103LA     H0F 2948   1.196   3.770   3.323
  103LA     H0G 2949   1.083   3.892   3.306
  103LA     C0H 2950   1.161   3.899   3.501
  103LA     H0I 2951   1.251   3.955   3.478
  103LA     H0J 2952   1.086   3.976   3.522
  103LA     C0K 2953   1.180   3.818   3.630
  103LA     H0M 2954   1.180   3.887   3.714
  103LA     H0N 2955   1.093   3.754   3.646
  103LA     C0O 2956   1.309   3.734   3.638
  103LA     H0P 2957   1.392   3.794   3.674
  103LA     H0Q 2958   1.291   3.660   3.717
  103LA     C0R 2959   1.350   3.657   3.511
  103LA     H0S 2960   1.389   3.559   3.541
  103LA     H0T 2961   1.261   3.628   3.455
  103LA     C0U 2962   1.459   3.728   3.426
  103LA     H0V 2963   1.464   3.833   3.454
  103LA     H0W 2964   1.555   3.686   3.454
  103LA     C0X 2965   1.446   3.724   3.271
  103LA     H0Y 2966   1.380   3.805   3.238
  103LA     H0Z 2967   1.542   3.751   3.228
  103LA     C10 2968   1.402   3.589   3.210
  103LA     H11 2969   1.349   3.528   3.284
  103LA     H12 2970   1.491   3.531   3.187
  103LA     C13 2971   1.315   3.601   3.082
  103LA     H14 2972   1.362   3.544   3.001
  103LA     H15 2973   1.314   3.704   3.046
  103LA     C16 2974   1.170   3.553   3.098
  103LA     H17 2975   1.116   3.568   3.005
  103LA     H18 2976   1.118   3.618   3.169
  103LA     C19 2977   1.156   3.406   3.141
  103LA     H1A 2978   1.221   3.341   3.082
  103LA     H1B 2979   1.054   3.371   3.129
  103LA     H1C 2980   1.182   3.392   3.246
  104EH     H00 2981   0.604   3.543   3.553
  104EH     C01 2982   0.658   3.607   3.483
  104EH     H02 2983   0.604   3.702   3.490
  104EH     H03 2984   0.757   3.630   3.522
  104EH     C04 2985   0.659   3.561   3.337
  104EH     C05 2986   0.514   3.524   3.305
  104EH     H06 2987   0.503   3.627   3.274
  104EH     H07 2988   0.458   3.500   3.394
  104EH     C08 2989   0.711   3.701   3.271
  104EH     O09 2990   0.723   3.709   3.150
  104EH     O0A 2991   0.740   3.840   3.354
  104EH     C0B 2992   0.763   3.992   3.307
  104EH     H0C 2993   0.662   4.035   3.311
  104EH     H0D 2994   0.783   3.990   3.200
  104EH     C0E 2995   0.857   4.126   3.368
  104EH     H0F 2996   0.886   4.095   3.468
  104EH     C0G 2997   0.992   4.153   3.289
  104EH     H0H 2998   1.012   4.072   3.219
  104EH     H0I 2999   1.074   4.153   3.361
  104EH     C0J 3000   1.015   4.285   3.206
  104EH     H0K 3001   1.106   4.279   3.146
  104EH     H0M 3002   1.036   4.371   3.270
  104EH     H0N 3003   0.934   4.313   3.139
  104EH     C0O 3004   0.802   4.281   3.396
  104EH     H0P 3005   0.781   4.333   3.303
  104EH     H0Q 3006   0.703   4.276   3.442
  104EH     C0R 3007   0.884   4.389   3.489
  104EH     H0S 3008   0.976   4.343   3.529
  104EH     H0T 3009   0.824   4.407   3.578
  104EH     C0U 3010   0.924   4.537   3.443
  104EH     H0V 3011   1.012   4.538   3.379
  104EH     H0W 3012   0.846   4.585   3.384
  104EH     C0X 3013   0.966   4.641   3.553
  104EH     H0Y 3014   1.013   4.729   3.510
  104EH     H0Z 3015   1.039   4.603   3.624
  104EH     H10 3016   0.882   4.680   3.611
  105LA     H00 3017   0.555   3.418   3.089
  105LA     C01 3018   0.469   3.480   3.063
  105LA     H02 3019   0.508   3.574   3.027
  105LA     H03 3020   0.421   3.434   2.977
  105LA     C04 3021   0.372   3.499   3.182
  105LA     C05 3022   0.261   3.389   3.172
  105LA     H06 3023   0.235   3.391   3.067
  105LA     H07 3024   0.219   3.461   3.240
  105LA     C08 3025   0.313   3.640   3.147
  105LA     O09 3026   0.206   3.651   3.087
  105LA     O0A 3027   0.381   3.766   3.174
  105LA     C0B 3028   0.337   3.895   3.112
  105LA     H0C 3029   0.365   3.889   3.006
  105LA     H0D 3030   0.229   3.902   3.112
  105LA     C0E 3031   0.394   4.033   3.166
  105LA     H0F 3032   0.371   4.045   3.272
  105LA     H0G 3033   0.503   4.028   3.160
  105LA     C0H 3034   0.355   4.167   3.090
  105LA     H0I 3035   0.446   4.205   3.044
  105LA     H0J 3036   0.292   4.149   3.003
  105LA     C0K 3037   0.301   4.290   3.172
  105LA     H0M 3038   0.358   4.299   3.265
  105LA     H0N 3039   0.325   4.382   3.119
  105LA     C0O 3040   0.150   4.296   3.206
  105LA     H0P 3041   0.116   4.201   3.249
  105LA     H0Q 3042   0.138   4.369   3.286
  105LA     C0R 3043   0.057   4.342   3.092
  105LA     H0S 3044  -0.038   4.373   3.136
  105LA     H0T 3045   0.095   4.433   3.046
  105LA     C0U 3046   0.026   4.233   2.988
  105LA     H0V 3047   0.079   4.141   3.015
  105LA     H0W 3048  -0.079   4.204   2.996
  105LA     C0X 3049   0.061   4.272   2.843
  105LA     H0Y 3050   0.129   4.357   2.841
  105LA     H0Z 3051   0.118   4.191   2.799
  105LA     C10 3052  -0.062   4.298   2.754
  105LA     H11 3053  -0.155   4.296   2.811
  105LA     H12 3054  -0.071   4.215   2.684
  105LA     C13 3055  -0.055   4.429   2.673
  105LA     H14 3056  -0.129   4.425   2.593
  105LA     H15 3057   0.041   4.437   2.623
  105LA     C16 3058  -0.082   4.555   2.756
  105LA     H17 3059  -0.076   4.642   2.691
  105LA     H18 3060  -0.003   4.569   2.831
  105LA     C19 3061  -0.219   4.554   2.825
  105LA     H1A 3062  -0.261   4.655   2.829
  105LA     H1B 3063  -0.213   4.515   2.926
  105LA     H1C 3064  -0.292   4.494   2.770
  106ST     H00 3065   0.119   3.334   3.432
  106ST     C01 3066   0.161   3.266   3.358
  106ST     H02 3067   0.265   3.295   3.373
  106ST     H03 3068   0.153   3.164   3.396
  106ST     C04 3069   0.097   3.289   3.218
  106ST     C05 3070   0.034   3.161   3.141
  106ST     H06 3071   0.130   3.111   3.141
  106ST     H07 3072  -0.012   3.224   3.067
  106ST     C08 3073   0.011   3.416   3.212
  106ST     O09 3074  -0.014   3.472   3.105
  106ST     O0A 3075  -0.026   3.484   3.334
  106ST     C0B 3076  -0.121   3.598   3.343
  106ST     H0C 3077  -0.077   3.687   3.297
  106ST     H0D 3078  -0.207   3.578   3.279
  106ST     C0E 3079  -0.174   3.633   3.490
  106ST     H0F 3080  -0.097   3.685   3.546
  106ST     H0G 3081  -0.180   3.536   3.539
  106ST     C0H 3082  -0.316   3.699   3.518
  106ST     H0I 3083  -0.357   3.649   3.606
  106ST     H0J 3084  -0.385   3.669   3.439
  106ST     C0K 3085  -0.338   3.853   3.546
  106ST     H0M 3086  -0.281   3.912   3.475
  106ST     H0N 3087  -0.443   3.872   3.523
  106ST     C0O 3088  -0.325   3.902   3.694
  106ST     H0P 3089  -0.229   3.868   3.732
  106ST     H0Q 3090  -0.396   3.844   3.754
  106ST     C0R 3091  -0.342   4.051   3.742
  106ST     H0S 3092  -0.272   4.067   3.824
  106ST     H0T 3093  -0.438   4.059   3.792
  106ST     C0U 3094  -0.333   4.176   3.651
  106ST     H0V 3095  -0.332   4.264   3.715
  106ST     H0W 3096  -0.429   4.187   3.602
  106ST     C0X 3097  -0.217   4.190   3.550
  106ST     H0Y 3098  -0.190   4.095   3.503
  106ST     H0Z 3099  -0.253   4.252   3.468
  106ST     C10 3100  -0.090   4.259   3.602
  106ST     H11 3101  -0.031   4.295   3.518
  106ST     H12 3102  -0.117   4.349   3.658
  106ST     C13 3103  -0.001   4.171   3.690
  106ST     H14 3104   0.075   4.234   3.736
  106ST     H15 3105  -0.060   4.134   3.773
  106ST     C16 3106   0.073   4.058   3.614
  106ST     H17 3107   0.061   4.073   3.507
  106ST     H18 3108   0.180   4.069   3.631
  106ST     C19 3109   0.029   3.914   3.646
  106ST     H1A 3110  -0.069   3.903   3.600
  106ST     H1B 3111   0.092   3.844   3.590
  106ST     C1C 3112   0.020   3.871   3.795
  106ST     H1D 3113  -0.019   3.950   3.859
  106ST     H1E 3114  -0.053   3.790   3.802
  106ST     C1F 3115   0.143   3.810   3.863
  106ST     H1G 3116   0.117   3.798   3.968
  106ST     H1H 3117   0.159   3.707   3.830
  106ST     C1I 3118   0.272   3.893   3.859
  106ST     H1J 3119   0.329   3.871   3.949
  106ST     H1K 3120   0.247   3.999   3.866
  106ST     C1M 3121   0.364   3.867   3.738
  106ST     H1N 3122   0.459   3.916   3.759
  106ST     H1O 3123   0.326   3.916   3.648
  106ST     C1P 3124   0.390   3.718   3.708
  106ST     H1Q 3125   0.495   3.708   3.681
  106ST     H1R 3126   0.380   3.658   3.798
  106ST     C1S 3127   0.303   3.663   3.594
  106ST     H1T 3128   0.333   3.562   3.566
  106ST     H1U 3129   0.308   3.725   3.505
  106ST     H1V 3130   0.198   3.655   3.622
  107ST     H00 3131  -0.100   2.833   3.276
  107ST     C01 3132  -0.080   2.939   3.262
  107ST     H02 3133  -0.149   2.991   3.329
  107ST     H03 3134   0.019   2.954   3.304
  107ST     C04 3135  -0.086   2.980   3.114
  107ST     C05 3136  -0.225   2.923   3.043
  107ST     H06 3137  -0.309   2.942   3.109
  107ST     H07 3138  -0.218   2.962   2.943
  107ST     C08 3139   0.026   2.917   3.045
  107ST     O09 3140   0.138   2.893   3.092
  107ST     O0A 3141  -0.002   2.889   2.921
  107ST     C0B 3142   0.069   2.951   2.819
  107ST     H0C 3143   0.162   2.996   2.854
  107ST     H0D 3144   0.096   2.872   2.750
  107ST     C0E 3145  -0.032   3.053   2.758
  107ST     H0F 3146  -0.123   3.001   2.729
  107ST     H0G 3147   0.015   3.082   2.664
  107ST     C0H 3148  -0.062   3.183   2.839
  107ST     H0I 3149  -0.057   3.262   2.765
  107ST     H0J 3150   0.034   3.206   2.887
  107ST     C0K 3151  -0.204   3.207   2.915
  107ST     H0M 3152  -0.281   3.136   2.882
  107ST     H0N 3153  -0.238   3.290   2.853
  107ST     C0O 3154  -0.243   3.271   3.061
  107ST     H0P 3155  -0.346   3.292   3.033
  107ST     H0Q 3156  -0.207   3.372   3.075
  107ST     C0R 3157  -0.274   3.210   3.207
  107ST     H0S 3158  -0.381   3.232   3.214
  107ST     H0T 3159  -0.279   3.101   3.211
  107ST     C0U 3160  -0.241   3.272   3.349
  107ST     H0V 3161  -0.331   3.281   3.410
  107ST     H0W 3162  -0.225   3.378   3.330
  107ST     C0X 3163  -0.126   3.219   3.443
  107ST     H0Y 3164  -0.054   3.165   3.381
  107ST     H0Z 3165  -0.076   3.307   3.484
  107ST     C10 3166  -0.140   3.130   3.570
  107ST     H11 3167  -0.059   3.057   3.576
  107ST     H12 3168  -0.125   3.192   3.658
  107ST     C13 3169  -0.275   3.064   3.585
  107ST     H14 3170  -0.318   3.113   3.672
  107ST     H15 3171  -0.340   3.105   3.508
  107ST     C16 3172  -0.280   2.908   3.596
  107ST     H17 3173  -0.180   2.865   3.601
  107ST     H18 3174  -0.323   2.883   3.693
  107ST     C19 3175  -0.364   2.832   3.489
  107ST     H1A 3176  -0.298   2.763   3.435
  107ST     H1B 3177  -0.437   2.770   3.540
  107ST     C1C 3178  -0.434   2.925   3.388
  107ST     H1D 3179  -0.497   2.998   3.439
  107ST     H1E 3180  -0.350   2.978   3.343
  107ST     C1F 3181  -0.511   2.874   3.266
  107ST     H1G 3182  -0.498   2.946   3.185
  107ST     H1H 3183  -0.474   2.780   3.227
  107ST     C1I 3184  -0.659   2.876   3.292
  107ST     H1J 3185  -0.715   2.862   3.200
  107ST     H1K 3186  -0.689   2.973   3.331
  107ST     C1M 3187  -0.699   2.773   3.395
  107ST     H1N 3188  -0.804   2.799   3.408
  107ST     H1O 3189  -0.653   2.791   3.492
  107ST     C1P 3190  -0.681   2.628   3.348
  107ST     H1Q 3191  -0.760   2.568   3.394
  107ST     H1R 3192  -0.696   2.621   3.241
  107ST     C1S 3193  -0.549   2.565   3.391
  107ST     H1T 3194  -0.547   2.459   3.365
  107ST     H1U 3195  -0.534   2.573   3.498
  107ST     H1V 3196  -0.461   2.612   3.347
  108ST     H00 3197  -0.302   2.680   2.765
  108ST     C01 3198  -0.266   2.758   2.830
  108ST     H02 3199  -0.159   2.740   2.841
  108ST     H03 3200  -0.284   2.852   2.777
  108ST     C04 3201  -0.339   2.757   2.963
  108ST     C05 3202  -0.491   2.716   2.920
  108ST     H06 3203  -0.524   2.794   2.854
  108ST     H07 3204  -0.542   2.697   3.014
  108ST     C08 3205  -0.294   2.658   3.063
  108ST     O09 3206  -0.246   2.682   3.173
  108ST     O0A 3207  -0.315   2.530   3.025
  108ST     C0B 3208  -0.370   2.436   3.118
  108ST     H0C 3209  -0.445   2.490   3.176
  108ST     H0D 3210  -0.430   2.361   3.067
  108ST     C0E 3211  -0.280   2.348   3.204
  108ST     H0F 3212  -0.347   2.286   3.262
  108ST     H0G 3213  -0.225   2.408   3.277
  108ST     C0H 3214  -0.186   2.253   3.126
  108ST     H0I 3215  -0.189   2.156   3.175
  108ST     H0J 3216  -0.085   2.289   3.142
  108ST     C0K 3217  -0.212   2.235   2.974
  108ST     H0M 3218  -0.187   2.132   2.949
  108ST     H0N 3219  -0.316   2.241   2.944
  108ST     C0O 3220  -0.122   2.327   2.890
  108ST     H0P 3221  -0.029   2.274   2.871
  108ST     H0Q 3222  -0.092   2.413   2.950
  108ST     C0R 3223  -0.175   2.382   2.757
  108ST     H0S 3224  -0.091   2.429   2.706
  108ST     H0T 3225  -0.243   2.464   2.779
  108ST     C0U 3226  -0.245   2.286   2.659
  108ST     H0V 3227  -0.252   2.336   2.562
  108ST     H0W 3228  -0.348   2.274   2.692
  108ST     C0X 3229  -0.185   2.146   2.640
  108ST     H0Y 3230  -0.189   2.090   2.734
  108ST     H0Z 3231  -0.253   2.092   2.574
  108ST     C10 3232  -0.045   2.137   2.575
  108ST     H11 3233  -0.047   2.060   2.498
  108ST     H12 3234  -0.023   2.230   2.522
  108ST     C13 3235   0.072   2.104   2.670
  108ST     H14 3236   0.161   2.091   2.608
  108ST     H15 3237   0.097   2.194   2.727
  108ST     C16 3238   0.057   1.975   2.755
  108ST     H17 3239  -0.036   1.924   2.727
  108ST     H18 3240   0.132   1.904   2.720
  108ST     C19 3241   0.064   1.980   2.911
  108ST     H1A 3242  -0.039   1.973   2.948
  108ST     H1B 3243   0.108   1.887   2.946
  108ST     C1C 3244   0.132   2.099   2.984
  108ST     H1D 3245   0.161   2.181   2.919
  108ST     H1E 3246   0.058   2.140   3.051
  108ST     C1F 3247   0.254   2.065   3.071
  108ST     H1G 3248   0.264   2.146   3.144
  108ST     H1H 3249   0.236   1.976   3.131
  108ST     C1I 3250   0.387   2.059   2.994
  108ST     H1J 3251   0.470   2.059   3.064
  108ST     H1K 3252   0.398   2.151   2.936
  108ST     C1M 3253   0.400   1.939   2.899
  108ST     H1N 3254   0.490   1.952   2.837
  108ST     H1O 3255   0.318   1.941   2.828
  108ST     C1P 3256   0.408   1.804   2.971
  108ST     H1Q 3257   0.511   1.782   2.997
  108ST     H1R 3258   0.355   1.807   3.067
  108ST     C1S 3259   0.348   1.689   2.889
  108ST     H1T 3260   0.357   1.595   2.942
  108ST     H1U 3261   0.399   1.679   2.793
  108ST     H1V 3262   0.243   1.706   2.869
  109EH     H00 3263  -0.598   2.358   2.820
  109EH     C01 3264  -0.560   2.444   2.875
  109EH     H02 3265  -0.597   2.431   2.977
  109EH     H03 3266  -0.452   2.436   2.864
  109EH     C04 3267  -0.611   2.573   2.817
  109EH     C05 3268  -0.764   2.547   2.808
  109EH     H06 3269  -0.804   2.627   2.748
  109EH     H07 3270  -0.796   2.542   2.911
  109EH     C08 3271  -0.570   2.581   2.675
  109EH     O09 3272  -0.503   2.670   2.625
  109EH     O0A 3273  -0.614   2.469   2.600
  109EH     C0B 3274  -0.584   2.451   2.459
  109EH     H0C 3275  -0.476   2.444   2.451
  109EH     H0D 3276  -0.614   2.541   2.406
  109EH     C0E 3277  -0.649   2.326   2.386
  109EH     H0F 3278  -0.636   2.241   2.454
  109EH     C0G 3279  -0.800   2.342   2.372
  109EH     H0H 3280  -0.830   2.382   2.469
  109EH     H0I 3281  -0.850   2.246   2.357
  109EH     C0J 3282  -0.857   2.448   2.280
  109EH     H0K 3283  -0.905   2.521   2.345
  109EH     H0M 3284  -0.935   2.408   2.215
  109EH     H0N 3285  -0.781   2.500   2.222
  109EH     C0O 3286  -0.584   2.285   2.250
  109EH     H0P 3287  -0.553   2.375   2.197
  109EH     H0Q 3288  -0.492   2.233   2.275
  109EH     C0R 3289  -0.662   2.192   2.151
  109EH     H0S 3290  -0.715   2.113   2.204
  109EH     H0T 3291  -0.588   2.139   2.091
  109EH     C0U 3292  -0.759   2.263   2.052
  109EH     H0V 3293  -0.862   2.246   2.083
  109EH     H0W 3294  -0.742   2.371   2.056
  109EH     C0X 3295  -0.746   2.226   1.904
  109EH     H0Y 3296  -0.814   2.286   1.845
  109EH     H0Z 3297  -0.771   2.121   1.885
  109EH     H10 3298  -0.646   2.245   1.866
  110LA     H00 3299  -1.002   2.267   2.870
  110LA     C01 3300  -0.945   2.359   2.879
  110LA     H02 3301  -1.014   2.424   2.933
  110LA     H03 3302  -0.859   2.331   2.940
  110LA     C04 3303  -0.905   2.416   2.742
  110LA     C05 3304  -1.029   2.473   2.675
  110LA     H06 3305  -1.083   2.499   2.765
  110LA     H07 3306  -0.982   2.539   2.603
  110LA     C08 3307  -0.871   2.277   2.681
  110LA     O09 3308  -0.940   2.229   2.591
  110LA     O0A 3309  -0.797   2.177   2.752
  110LA     C0B 3310  -0.837   2.032   2.745
  110LA     H0C 3311  -0.946   2.027   2.746
  110LA     H0D 3312  -0.809   1.988   2.840
  110LA     C0E 3313  -0.788   1.926   2.633
  110LA     H0F 3314  -0.796   1.974   2.535
  110LA     H0G 3315  -0.681   1.908   2.648
  110LA     C0H 3316  -0.860   1.783   2.625
  110LA     H0I 3317  -0.854   1.732   2.721
  110LA     H0J 3318  -0.966   1.799   2.607
  110LA     C0K 3319  -0.811   1.680   2.515
  110LA     H0M 3320  -0.813   1.732   2.419
  110LA     H0N 3321  -0.706   1.655   2.530
  110LA     C0O 3322  -0.892   1.546   2.493
  110LA     H0P 3323  -0.997   1.562   2.514
  110LA     H0Q 3324  -0.890   1.522   2.386
  110LA     C0R 3325  -0.841   1.418   2.566
  110LA     H0S 3326  -0.748   1.384   2.521
  110LA     H0T 3327  -0.817   1.444   2.669
  110LA     C0U 3328  -0.941   1.298   2.566
  110LA     H0V 3329  -1.042   1.337   2.576
  110LA     H0W 3330  -0.941   1.244   2.471
  110LA     C0X 3331  -0.920   1.198   2.683
  110LA     H0Y 3332  -0.884   1.252   2.771
  110LA     H0Z 3333  -1.017   1.158   2.714
  110LA     C10 3334  -0.829   1.076   2.655
  110LA     H11 3335  -0.765   1.094   2.568
  110LA     H12 3336  -0.892   0.992   2.627
  110LA     C13 3337  -0.742   1.035   2.776
  110LA     H14 3338  -0.733   0.927   2.781
  110LA     H15 3339  -0.792   1.063   2.868
  110LA     C16 3340  -0.601   1.097   2.773
  110LA     H17 3341  -0.559   1.095   2.873
  110LA     H18 3342  -0.608   1.202   2.744
  110LA     C19 3343  -0.506   1.022   2.679
  110LA     H1A 3344  -0.491   0.919   2.711
  110LA     H1B 3345  -0.408   1.069   2.677
  110LA     H1C 3346  -0.543   1.019   2.576
  111ST     H00 3347  -1.227   2.371   2.378
  111ST     C01 3348  -1.158   2.370   2.462
  111ST     H02 3349  -1.147   2.264   2.481
  111ST     H03 3350  -1.060   2.401   2.426
  111ST     C04 3351  -1.204   2.449   2.589
  111ST     C05 3352  -1.320   2.551   2.562
  111ST     H06 3353  -1.384   2.556   2.649
  111ST     H07 3354  -1.358   2.478   2.493
  111ST     C08 3355  -1.266   2.336   2.667
  111ST     O09 3356  -1.225   2.293   2.775
  111ST     O0A 3357  -1.369   2.271   2.597
  111ST     C0B 3358  -1.401   2.131   2.617
  111ST     H0C 3359  -1.346   2.073   2.543
  111ST     H0D 3360  -1.362   2.095   2.712
  111ST     C0E 3361  -1.551   2.089   2.604
  111ST     H0F 3362  -1.559   1.982   2.623
  111ST     H0G 3363  -1.584   2.100   2.501
  111ST     C0H 3364  -1.651   2.160   2.697
  111ST     H0I 3365  -1.752   2.126   2.672
  111ST     H0J 3366  -1.651   2.267   2.676
  111ST     C0K 3367  -1.625   2.131   2.845
  111ST     H0M 3368  -1.720   2.122   2.898
  111ST     H0N 3369  -1.578   2.033   2.853
  111ST     C0O 3370  -1.540   2.241   2.911
  111ST     H0P 3371  -1.608   2.317   2.951
  111ST     H0Q 3372  -1.485   2.294   2.833
  111ST     C0R 3373  -1.439   2.202   3.021
  111ST     H0S 3374  -1.483   2.216   3.120
  111ST     H0T 3375  -1.363   2.279   3.015
  111ST     C0U 3376  -1.366   2.066   3.010
  111ST     H0V 3377  -1.268   2.075   3.056
  111ST     H0W 3378  -1.340   2.047   2.906
  111ST     C0X 3379  -1.436   1.942   3.067
  111ST     H0Y 3380  -1.539   1.932   3.034
  111ST     H0Z 3381  -1.385   1.856   3.024
  111ST     C10 3382  -1.428   1.924   3.220
  111ST     H11 3383  -1.440   1.818   3.242
  111ST     H12 3384  -1.327   1.949   3.254
  111ST     C13 3385  -1.531   1.999   3.304
  111ST     H14 3386  -1.503   1.985   3.408
  111ST     H15 3387  -1.524   2.108   3.292
  111ST     C16 3388  -1.675   1.946   3.288
  111ST     H17 3389  -1.671   1.842   3.257
  111ST     H18 3390  -1.722   1.940   3.386
  111ST     C19 3391  -1.769   2.020   3.190
  111ST     H1A 3392  -1.739   1.993   3.089
  111ST     H1B 3393  -1.870   1.978   3.199
  111ST     C1C 3394  -1.779   2.175   3.195
  111ST     H1D 3395  -1.684   2.224   3.219
  111ST     H1E 3396  -1.798   2.206   3.093
  111ST     C1F 3397  -1.894   2.236   3.277
  111ST     H1G 3398  -1.921   2.329   3.227
  111ST     H1H 3399  -1.984   2.174   3.268
  111ST     C1I 3400  -1.863   2.274   3.423
  111ST     H1J 3401  -1.934   2.351   3.454
  111ST     H1K 3402  -1.765   2.323   3.427
  111ST     C1M 3403  -1.867   2.161   3.526
  111ST     H1N 3404  -1.843   2.202   3.624
  111ST     H1O 3405  -1.785   2.091   3.506
  111ST     C1P 3406  -2.003   2.087   3.536
  111ST     H1Q 3407  -2.048   2.109   3.632
  111ST     H1R 3408  -2.074   2.125   3.462
  111ST     C1S 3409  -1.991   1.935   3.520
  111ST     H1T 3410  -2.088   1.887   3.530
  111ST     H1U 3411  -1.925   1.892   3.596
  111ST     H1V 3412  -1.951   1.908   3.422
  112EH     H00 3413  -1.259   2.600   2.314
  112EH     C01 3414  -1.336   2.677   2.312
  112EH     H02 3415  -1.291   2.770   2.276
  112EH     H03 3416  -1.398   2.646   2.229
  112EH     C04 3417  -1.407   2.692   2.450
  112EH     C05 3418  -1.445   2.847   2.487
  112EH     H06 3419  -1.547   2.854   2.450
  112EH     H07 3420  -1.460   2.846   2.594
  112EH     C08 3421  -1.532   2.604   2.402
  112EH     O09 3422  -1.640   2.655   2.375
  112EH     O0A 3423  -1.521   2.452   2.370
  112EH     C0B 3424  -1.578   2.364   2.257
  112EH     H0C 3425  -1.486   2.331   2.208
  112EH     H0D 3426  -1.623   2.430   2.183
  112EH     C0E 3427  -1.667   2.223   2.262
  112EH     H0F 3428  -1.703   2.215   2.365
  112EH     C0G 3429  -1.797   2.232   2.176
  112EH     H0H 3430  -1.844   2.330   2.191
  112EH     H0I 3431  -1.870   2.161   2.214
  112EH     C0J 3432  -1.785   2.205   2.023
  112EH     H0K 3433  -1.854   2.266   1.966
  112EH     H0M 3434  -1.812   2.102   1.998
  112EH     H0N 3435  -1.685   2.221   1.984
  112EH     C0O 3436  -1.605   2.078   2.223
  112EH     H0P 3437  -1.572   2.076   2.119
  112EH     H0Q 3438  -1.512   2.065   2.278
  112EH     C0R 3439  -1.689   1.943   2.248
  112EH     H0S 3440  -1.770   1.960   2.319
  112EH     H0T 3441  -1.623   1.873   2.299
  112EH     C0U 3442  -1.747   1.859   2.127
  112EH     H0V 3443  -1.830   1.911   2.080
  112EH     H0W 3444  -1.671   1.845   2.049
  112EH     C0X 3445  -1.803   1.718   2.161
  112EH     H0Y 3446  -1.849   1.672   2.074
  112EH     H0Z 3447  -1.881   1.721   2.237
  112EH     H10 3448  -1.727   1.648   2.195
  113LA     H00 3449  -1.409   3.126   2.252
  113LA     C01 3450  -1.407   3.032   2.307
  113LA     H02 3451  -1.494   2.976   2.274
  113LA     H03 3452  -1.319   2.978   2.272
  113LA     C04 3453  -1.407   3.053   2.460
  113LA     C05 3454  -1.468   3.201   2.490
  113LA     H06 3455  -1.543   3.207   2.412
  113LA     H07 3456  -1.499   3.180   2.591
  113LA     C08 3457  -1.284   3.038   2.531
  113LA     O09 3458  -1.183   2.999   2.476
  113LA     O0A 3459  -1.295   3.082   2.659
  113LA     C0B 3460  -1.241   3.025   2.777
  113LA     H0C 3461  -1.293   2.929   2.785
  113LA     H0D 3462  -1.293   3.078   2.857
  113LA     C0E 3463  -1.087   3.022   2.819
  113LA     H0F 3464  -1.074   3.102   2.891
  113LA     H0G 3465  -1.073   2.932   2.879
  113LA     C0H 3466  -0.968   3.031   2.715
  113LA     H0I 3467  -1.009   3.048   2.615
  113LA     H0J 3468  -0.916   3.124   2.738
  113LA     C0K 3469  -0.858   2.917   2.706
  113LA     H0M 3470  -0.810   2.915   2.803
  113LA     H0N 3471  -0.902   2.818   2.703
  113LA     C0O 3472  -0.742   2.937   2.597
  113LA     H0P 3473  -0.719   3.043   2.590
  113LA     H0Q 3474  -0.654   2.898   2.649
  113LA     C0R 3475  -0.722   2.872   2.451
  113LA     H0S 3476  -0.720   2.770   2.490
  113LA     H0T 3477  -0.805   2.942   2.441
  113LA     C0U 3478  -0.799   2.829   2.317
  113LA     H0V 3479  -0.794   2.906   2.240
  113LA     H0W 3480  -0.744   2.746   2.274
  113LA     C0X 3481  -0.946   2.781   2.325
  113LA     H0Y 3482  -1.014   2.857   2.287
  113LA     H0Z 3483  -0.967   2.695   2.262
  113LA     C10 3484  -0.975   2.760   2.471
  113LA     H11 3485  -0.976   2.862   2.508
  113LA     H12 3486  -0.901   2.697   2.520
  113LA     C13 3487  -1.108   2.717   2.510
  113LA     H14 3488  -1.114   2.618   2.464
  113LA     H15 3489  -1.168   2.776   2.441
  113LA     C16 3490  -1.164   2.759   2.652
  113LA     H17 3491  -1.269   2.786   2.635
  113LA     H18 3492  -1.114   2.856   2.662
  113LA     C19 3493  -1.178   2.697   2.795
  113LA     H1A 3494  -1.242   2.608   2.800
  113LA     H1B 3495  -1.233   2.758   2.866
  113LA     H1C 3496  -1.082   2.681   2.844
  114EH     H00 3497  -1.649   3.510   2.542
  114EH     C01 3498  -1.604   3.412   2.528
  114EH     H02 3499  -1.650   3.346   2.602
  114EH     H03 3500  -1.641   3.384   2.429
  114EH     C04 3501  -1.450   3.414   2.537
  114EH     C05 3502  -1.411   3.570   2.499
  114EH     H06 3503  -1.303   3.567   2.496
  114EH     H07 3504  -1.470   3.596   2.412
  114EH     C08 3505  -1.382   3.375   2.660
  114EH     O09 3506  -1.441   3.352   2.765
  114EH     O0A 3507  -1.250   3.349   2.650
  114EH     C0B 3508  -1.182   3.321   2.529
  114EH     H0C 3509  -1.246   3.312   2.441
  114EH     H0D 3510  -1.132   3.225   2.538
  114EH     C0E 3511  -1.071   3.422   2.513
  114EH     H0F 3512  -1.106   3.510   2.568
  114EH     C0G 3513  -0.947   3.377   2.591
  114EH     H0H 3514  -0.980   3.336   2.686
  114EH     H0I 3515  -0.887   3.464   2.616
  114EH     C0J 3516  -0.858   3.274   2.519
  114EH     H0K 3517  -0.784   3.238   2.591
  114EH     H0M 3518  -0.802   3.316   2.436
  114EH     H0N 3519  -0.914   3.188   2.481
  114EH     C0O 3520  -1.048   3.457   2.365
  114EH     H0P 3521  -0.943   3.448   2.339
  114EH     H0Q 3522  -1.099   3.387   2.299
  114EH     C0R 3523  -1.097   3.598   2.335
  114EH     H0S 3524  -1.084   3.663   2.422
  114EH     H0T 3525  -1.204   3.596   2.312
  114EH     C0U 3526  -1.024   3.663   2.219
  114EH     H0V 3527  -0.920   3.679   2.246
  114EH     H0W 3528  -1.025   3.597   2.132
  114EH     C0X 3529  -1.091   3.796   2.185
  114EH     H0Y 3530  -1.035   3.850   2.109
  114EH     H0Z 3531  -1.099   3.860   2.273
  114EH     H10 3532  -1.192   3.780   2.147
  115EH     H00 3533  -1.291   3.808   2.753
  115EH     C01 3534  -1.304   3.734   2.673
  115EH     H02 3535  -1.206   3.719   2.626
  115EH     H03 3536  -1.331   3.642   2.725
  115EH     C04 3537  -1.411   3.778   2.573
  115EH     C05 3538  -1.381   3.940   2.533
  115EH     H06 3539  -1.487   3.960   2.536
  115EH     H07 3540  -1.288   3.957   2.585
  115EH     C08 3541  -1.550   3.753   2.614
  115EH     O09 3542  -1.646   3.762   2.538
  115EH     O0A 3543  -1.561   3.709   2.745
  115EH     C0B 3544  -1.660   3.611   2.783
  115EH     H0C 3545  -1.615   3.515   2.758
  115EH     H0D 3546  -1.748   3.619   2.720
  115EH     C0E 3547  -1.698   3.602   2.934
  115EH     H0F 3548  -1.628   3.666   2.986
  115EH     C0G 3549  -1.842   3.656   2.954
  115EH     H0H 3550  -1.848   3.753   2.905
  115EH     H0I 3551  -1.861   3.675   3.059
  115EH     C0J 3552  -1.954   3.563   2.901
  115EH     H0K 3553  -2.033   3.621   2.853
  115EH     H0M 3554  -1.999   3.507   2.982
  115EH     H0N 3555  -1.918   3.491   2.827
  115EH     C0O 3556  -1.682   3.459   2.996
  115EH     H0P 3557  -1.757   3.391   2.956
  115EH     H0Q 3558  -1.588   3.415   2.963
  115EH     C0R 3559  -1.682   3.452   3.151
  115EH     H0S 3560  -1.719   3.545   3.193
  115EH     H0T 3561  -1.579   3.443   3.185
  115EH     C0U 3562  -1.767   3.338   3.211
  115EH     H0V 3563  -1.872   3.361   3.198
  115EH     H0W 3564  -1.749   3.244   3.157
  115EH     C0X 3565  -1.738   3.315   3.360
  115EH     H0Y 3566  -1.807   3.243   3.403
  115EH     H0Z 3567  -1.748   3.407   3.418
  115EH     H10 3568  -1.637   3.277   3.376
  116EH     H00 3569  -1.486   4.123   2.368
  116EH     C01 3570  -1.507   4.178   2.459
  116EH     H02 3571  -1.526   4.282   2.432
  116EH     H03 3572  -1.602   4.143   2.501
  116EH     C04 3573  -1.392   4.165   2.559
  116EH     C05 3574  -1.310   4.309   2.537
  116EH     H06 3575  -1.234   4.298   2.613
  116EH     H07 3576  -1.280   4.287   2.436
  116EH     C08 3577  -1.436   4.154   2.699
  116EH     O09 3578  -1.532   4.086   2.736
  116EH     O0A 3579  -1.364   4.225   2.787
  116EH     C0B 3580  -1.274   4.164   2.879
  116EH     H0C 3581  -1.254   4.236   2.959
  116EH     H0D 3582  -1.180   4.154   2.825
  116EH     C0E 3583  -1.314   4.028   2.941
  116EH     H0F 3584  -1.366   3.970   2.866
  116EH     C0G 3585  -1.188   3.946   2.975
  116EH     H0H 3586  -1.122   3.943   2.888
  116EH     H0I 3587  -1.213   3.842   2.995
  116EH     C0J 3588  -1.109   4.001   3.093
  116EH     H0K 3589  -1.004   3.975   3.079
  116EH     H0M 3590  -1.143   3.960   3.188
  116EH     H0N 3591  -1.114   4.110   3.100
  116EH     C0O 3592  -1.410   4.041   3.061
  116EH     H0P 3593  -1.356   4.074   3.150
  116EH     H0Q 3594  -1.482   4.119   3.040
  116EH     C0R 3595  -1.487   3.911   3.089
  116EH     H0S 3596  -1.427   3.823   3.066
  116EH     H0T 3597  -1.570   3.906   3.018
  116EH     C0U 3598  -1.537   3.900   3.234
  116EH     H0V 3599  -1.471   3.833   3.289
  116EH     H0W 3600  -1.531   3.996   3.285
  116EH     C0X 3601  -1.681   3.849   3.243
  116EH     H0Y 3602  -1.711   3.830   3.346
  116EH     H0Z 3603  -1.691   3.755   3.188
  116EH     H10 3604  -1.750   3.920   3.199
  117LA     H00 3605  -1.093   4.475   2.631
  117LA     C01 3606  -1.185   4.529   2.652
  117LA     H02 3607  -1.235   4.482   2.737
  117LA     H03 3608  -1.154   4.627   2.689
  117LA     C04 3609  -1.277   4.536   2.529
  117LA     C05 3610  -1.318   4.697   2.510
  117LA     H06 3611  -1.350   4.726   2.610
  117LA     H07 3612  -1.388   4.698   2.428
  117LA     C08 3613  -1.238   4.503   2.397
  117LA     O09 3614  -1.122   4.486   2.362
  117LA     O0A 3615  -1.354   4.478   2.332
  117LA     C0B 3616  -1.375   4.432   2.199
  117LA     H0C 3617  -1.380   4.513   2.126
  117LA     H0D 3618  -1.478   4.396   2.203
  117LA     C0E 3619  -1.286   4.318   2.149
  117LA     H0F 3620  -1.265   4.249   2.230
  117LA     H0G 3621  -1.345   4.261   2.076
  117LA     C0H 3622  -1.156   4.365   2.082
  117LA     H0I 3623  -1.098   4.432   2.146
  117LA     H0J 3624  -1.092   4.278   2.070
  117LA     C0K 3625  -1.175   4.434   1.946
  117LA     H0M 3626  -1.139   4.365   1.869
  117LA     H0N 3627  -1.281   4.448   1.923
  117LA     C0O 3628  -1.100   4.568   1.930
  117LA     H0P 3629  -1.004   4.566   1.981
  117LA     H0Q 3630  -1.076   4.580   1.824
  117LA     C0R 3631  -1.183   4.691   1.970
  117LA     H0S 3632  -1.170   4.772   1.897
  117LA     H0T 3633  -1.289   4.667   1.967
  117LA     C0U 3634  -1.145   4.748   2.105
  117LA     H0V 3635  -1.089   4.840   2.095
  117LA     H0W 3636  -1.080   4.680   2.160
  117LA     C0X 3637  -1.267   4.768   2.193
  117LA     H0Y 3638  -1.309   4.672   2.223
  117LA     H0Z 3639  -1.216   4.799   2.285
  117LA     C10 3640  -1.385   4.857   2.149
  117LA     H11 3641  -1.424   4.820   2.054
  117LA     H12 3642  -1.345   4.955   2.127
  117LA     C13 3643  -1.504   4.861   2.252
  117LA     H14 3644  -1.491   4.932   2.334
  117LA     H15 3645  -1.514   4.764   2.300
  117LA     C16 3646  -1.645   4.875   2.195
  117LA     H17 3647  -1.715   4.870   2.279
  117LA     H18 3648  -1.664   4.787   2.134
  117LA     C19 3649  -1.671   5.002   2.117
  117LA     H1A 3650  -1.674   5.089   2.183
  117LA     H1B 3651  -1.768   4.996   2.068
  117LA     H1C 3652  -1.596   5.018   2.040
  118ST     H00 3653  -1.063   4.801   2.441
  118ST     C01 3654  -1.111   4.867   2.514
  118ST     H02 3655  -1.108   4.818   2.611
  118ST     H03 3656  -1.044   4.952   2.532
  118ST     C04 3657  -1.254   4.911   2.478
  118ST     C05 3658  -1.250   5.027   2.358
  118ST     H06 3659  -1.344   5.063   2.398
  118ST     H07 3660  -1.163   5.075   2.399
  118ST     C08 3661  -1.297   4.989   2.605
  118ST     O09 3662  -1.414   5.013   2.632
  118ST     O0A 3663  -1.190   5.036   2.695
  118ST     C0B 3664  -1.155   5.167   2.762
  118ST     H0C 3665  -1.071   5.136   2.824
  118ST     H0D 3666  -1.108   5.229   2.687
  118ST     C0E 3667  -1.235   5.266   2.861
  118ST     H0F 3668  -1.302   5.211   2.926
  118ST     H0G 3669  -1.295   5.329   2.795
  118ST     C0H 3670  -1.150   5.372   2.949
  118ST     H0I 3671  -1.109   5.444   2.879
  118ST     H0J 3672  -1.062   5.323   2.991
  118ST     C0K 3673  -1.210   5.463   3.067
  118ST     H0M 3674  -1.130   5.531   3.098
  118ST     H0N 3675  -1.286   5.533   3.034
  118ST     C0O 3676  -1.262   5.396   3.198
  118ST     H0P 3677  -1.217   5.297   3.205
  118ST     H0Q 3678  -1.369   5.378   3.189
  118ST     C0R 3679  -1.238   5.465   3.335
  118ST     H0S 3680  -1.277   5.399   3.413
  118ST     H0T 3681  -1.300   5.555   3.345
  118ST     C0U 3682  -1.093   5.502   3.376
  118ST     H0V 3683  -1.087   5.514   3.484
  118ST     H0W 3684  -1.072   5.601   3.337
  118ST     C0X 3685  -0.978   5.409   3.328
  118ST     H0Y 3686  -0.987   5.389   3.221
  118ST     H0Z 3687  -0.886   5.467   3.338
  118ST     C10 3688  -0.955   5.278   3.406
  118ST     H11 3689  -0.855   5.241   3.383
  118ST     H12 3690  -0.951   5.298   3.513
  118ST     C13 3691  -1.055   5.165   3.374
  118ST     H14 3692  -1.049   5.089   3.452
  118ST     H15 3693  -1.157   5.203   3.383
  118ST     C16 3694  -1.026   5.096   3.239
  118ST     H17 3695  -0.959   5.160   3.180
  118ST     H18 3696  -0.965   5.008   3.258
  118ST     C19 3697  -1.144   5.060   3.146
  118ST     H1A 3698  -1.159   5.145   3.079
  118ST     H1B 3699  -1.114   4.983   3.075
  118ST     C1C 3700  -1.282   5.026   3.207
  118ST     H1D 3701  -1.285   5.039   3.316
  118ST     H1E 3702  -1.353   5.099   3.169
  118ST     C1F 3703  -1.336   4.887   3.169
  118ST     H1G 3704  -1.445   4.891   3.177
  118ST     H1H 3705  -1.317   4.867   3.064
  118ST     C1I 3706  -1.287   4.773   3.260
  118ST     H1J 3707  -1.346   4.684   3.241
  118ST     H1K 3708  -1.307   4.801   3.363
  118ST     C1M 3709  -1.138   4.738   3.246
  118ST     H1N 3710  -1.109   4.669   3.326
  118ST     H1O 3711  -1.079   4.828   3.266
  118ST     C1P 3712  -1.099   4.676   3.110
  118ST     H1Q 3713  -1.100   4.567   3.120
  118ST     H1R 3714  -1.174   4.699   3.034
  118ST     C1S 3715  -0.962   4.722   3.059
  118ST     H1T 3716  -0.936   4.673   2.966
  118ST     H1U 3717  -0.883   4.702   3.132
  118ST     H1V 3718  -0.961   4.829   3.040
  119EH     H00 3719  -1.419   5.146   2.109
  119EH     C01 3720  -1.416   5.193   2.207
  119EH     H02 3721  -1.466   5.290   2.204
  119EH     H03 3722  -1.479   5.138   2.276
  119EH     C04 3723  -1.272   5.214   2.247
  119EH     C05 3724  -1.213   5.293   2.118
  119EH     H06 3725  -1.180   5.387   2.160
  119EH     H07 3726  -1.132   5.230   2.085
  119EH     C08 3727  -1.274   5.316   2.360
  119EH     O09 3728  -1.361   5.314   2.445
  119EH     O0A 3729  -1.174   5.420   2.367
  119EH     C0B 3730  -1.191   5.544   2.445
  119EH     H0C 3731  -1.146   5.532   2.544
  119EH     H0D 3732  -1.298   5.556   2.466
  119EH     C0E 3733  -1.140   5.679   2.378
  119EH     H0F 3734  -1.144   5.657   2.271
  119EH     C0G 3735  -1.235   5.803   2.395
  119EH     H0H 3736  -1.339   5.771   2.401
  119EH     H0I 3737  -1.232   5.862   2.303
  119EH     C0J 3738  -1.209   5.905   2.509
  119EH     H0K 3739  -1.285   5.982   2.510
  119EH     H0M 3740  -1.115   5.959   2.496
  119EH     H0N 3741  -1.208   5.859   2.608
  119EH     C0O 3742  -0.992   5.721   2.408
  119EH     H0P 3743  -0.986   5.771   2.505
  119EH     H0Q 3744  -0.929   5.633   2.418
  119EH     C0R 3745  -0.931   5.814   2.298
  119EH     H0S 3746  -1.008   5.883   2.263
  119EH     H0T 3747  -0.906   5.754   2.211
  119EH     C0U 3748  -0.810   5.902   2.340
  119EH     H0V 3749  -0.830   6.005   2.311
  119EH     H0W 3750  -0.798   5.905   2.448
  119EH     C0X 3751  -0.678   5.861   2.273
  119EH     H0Y 3752  -0.598   5.930   2.299
  119EH     H0Z 3753  -0.686   5.862   2.164
  119EH     H10 3754  -0.648   5.761   2.304
  120EH     H00 3755  -1.055   5.553   1.939
  120EH     C01 3756  -1.072   5.446   1.953
  120EH     H02 3757  -1.006   5.395   1.884
  120EH     H03 3758  -1.028   5.442   2.053
  120EH     C04 3759  -1.219   5.401   1.934
  120EH     C05 3760  -1.269   5.520   1.841
  120EH     H06 3761  -1.375   5.511   1.821
  120EH     H07 3762  -1.239   5.617   1.879
  120EH     C08 3763  -1.261   5.281   1.864
  120EH     O09 3764  -1.182   5.193   1.829
  120EH     O0A 3765  -1.397   5.274   1.845
  120EH     C0B 3766  -1.492   5.329   1.937
  120EH     H0C 3767  -1.444   5.377   2.023
  120EH     H0D 3768  -1.540   5.237   1.972
  120EH     C0E 3769  -1.604   5.427   1.892
  120EH     H0F 3770  -1.599   5.436   1.783
  120EH     C0G 3771  -1.740   5.363   1.926
  120EH     H0H 3772  -1.746   5.267   1.875
  120EH     H0I 3773  -1.821   5.424   1.885
  120EH     C0J 3774  -1.762   5.342   2.078
  120EH     H0K 3775  -1.832   5.261   2.096
  120EH     H0M 3776  -1.799   5.432   2.127
  120EH     H0N 3777  -1.671   5.314   2.131
  120EH     C0O 3778  -1.594   5.569   1.956
  120EH     H0P 3779  -1.637   5.568   2.056
  120EH     H0Q 3780  -1.491   5.598   1.976
  120EH     C0R 3781  -1.658   5.681   1.873
  120EH     H0S 3782  -1.731   5.640   1.803
  120EH     H0T 3783  -1.581   5.727   1.811
  120EH     C0U 3784  -1.727   5.788   1.960
  120EH     H0V 3785  -1.813   5.743   2.010
  120EH     H0W 3786  -1.660   5.821   2.039
  120EH     C0X 3787  -1.773   5.910   1.880
  120EH     H0Y 3788  -1.831   5.978   1.943
  120EH     H0Z 3789  -1.836   5.881   1.796
  120EH     H10 3790  -1.688   5.966   1.840
  121LA     H00 3791  -1.090   5.420   1.667
  121LA     C01 3792  -1.098   5.528   1.655
  121LA     H02 3793  -1.048   5.580   1.736
  121LA     H03 3794  -1.034   5.556   1.572
  121LA     C04 3795  -1.245   5.572   1.646
  121LA     C05 3796  -1.236   5.696   1.552
  121LA     H06 3797  -1.159   5.758   1.596
  121LA     H07 3798  -1.179   5.660   1.468
  121LA     C08 3799  -1.330   5.478   1.571
  121LA     O09 3800  -1.429   5.421   1.615
  121LA     O0A 3801  -1.308   5.474   1.436
  121LA     C0B 3802  -1.195   5.418   1.372
  121LA     H0C 3803  -1.207   5.309   1.367
  121LA     H0D 3804  -1.099   5.435   1.421
  121LA     C0E 3805  -1.188   5.478   1.230
  121LA     H0F 3806  -1.159   5.583   1.234
  121LA     H0G 3807  -1.110   5.428   1.173
  121LA     C0H 3808  -1.324   5.461   1.161
  121LA     H0I 3809  -1.360   5.363   1.193
  121LA     H0J 3810  -1.400   5.528   1.202
  121LA     C0K 3811  -1.325   5.469   1.008
  121LA     H0M 3812  -1.354   5.568   0.975
  121LA     H0N 3813  -1.226   5.452   0.965
  121LA     C0O 3814  -1.424   5.363   0.957
  121LA     H0P 3815  -1.517   5.372   1.014
  121LA     H0Q 3816  -1.458   5.382   0.855
  121LA     C0R 3817  -1.366   5.222   0.968
  121LA     H0S 3818  -1.352   5.179   0.869
  121LA     H0T 3819  -1.265   5.227   1.010
  121LA     C0U 3820  -1.453   5.131   1.056
  121LA     H0V 3821  -1.480   5.184   1.147
  121LA     H0W 3822  -1.547   5.108   1.005
  121LA     C0X 3823  -1.379   5.003   1.096
  121LA     H0Y 3824  -1.281   5.029   1.135
  121LA     H0Z 3825  -1.432   4.957   1.180
  121LA     C10 3826  -1.369   4.901   0.982
  121LA     H11 3827  -1.389   4.947   0.885
  121LA     H12 3828  -1.450   4.828   0.995
  121LA     C13 3829  -1.234   4.828   0.978
  121LA     H14 3830  -1.247   4.729   0.933
  121LA     H15 3831  -1.201   4.808   1.081
  121LA     C16 3832  -1.125   4.905   0.902
  121LA     H17 3833  -1.028   4.862   0.927
  121LA     H18 3834  -1.121   5.009   0.936
  121LA     C19 3835  -1.142   4.899   0.750
  121LA     H1A 3836  -1.147   4.796   0.715
  121LA     H1B 3837  -1.059   4.947   0.699
  121LA     H1C 3838  -1.233   4.949   0.717
  122EH     H00 3839  -1.482   5.663   1.401
  122EH     C01 3840  -1.461   5.761   1.444
  122EH     H02 3841  -1.535   5.832   1.406
  122EH     H03 3842  -1.477   5.758   1.551
  122EH     C04 3843  -1.319   5.807   1.412
  122EH     C05 3844  -1.295   5.814   1.260
  122EH     H06 3845  -1.194   5.851   1.243
  122EH     H07 3846  -1.328   5.723   1.213
  122EH     C08 3847  -1.285   5.941   1.466
  122EH     O09 3848  -1.275   6.043   1.399
  122EH     O0A 3849  -1.256   5.949   1.598
  122EH     C0B 3850  -1.173   6.055   1.645
  122EH     H0C 3851  -1.174   6.056   1.754
  122EH     H0D 3852  -1.217   6.150   1.615
  122EH     C0E 3853  -1.026   6.044   1.592
  122EH     H0F 3854  -1.033   6.010   1.488
  122EH     C0G 3855  -0.958   6.182   1.584
  122EH     H0H 3856  -1.022   6.249   1.526
  122EH     H0I 3857  -0.866   6.175   1.525
  122EH     C0J 3858  -0.926   6.247   1.719
  122EH     H0K 3859  -0.914   6.355   1.709
  122EH     H0M 3860  -0.834   6.208   1.761
  122EH     H0N 3861  -1.006   6.230   1.792
  122EH     C0O 3862  -0.940   5.940   1.668
  122EH     H0P 3863  -0.897   5.986   1.757
  122EH     H0Q 3864  -1.003   5.860   1.707
  122EH     C0R 3865  -0.828   5.877   1.583
  122EH     H0S 3866  -0.783   5.952   1.518
  122EH     H0T 3867  -0.872   5.803   1.516
  122EH     C0U 3868  -0.718   5.813   1.668
  122EH     H0V 3869  -0.658   5.891   1.715
  122EH     H0W 3870  -0.762   5.756   1.750
  122EH     C0X 3871  -0.626   5.720   1.588
  122EH     H0Y 3872  -0.548   5.678   1.651
  122EH     H0Z 3873  -0.577   5.773   1.506
  122EH     H10 3874  -0.681   5.636   1.546
  123LA     H00 3875  -1.549   5.808   1.135
  123LA     C01 3876  -1.508   5.909   1.142
  123LA     H02 3877  -1.564   5.975   1.075
  123LA     H03 3878  -1.528   5.953   1.240
  123LA     C04 3879  -1.360   5.917   1.109
  123LA     C05 3880  -1.336   5.881   0.965
  123LA     H06 3881  -1.380   5.784   0.946
  123LA     H07 3882  -1.232   5.897   0.942
  123LA     C08 3883  -1.306   6.055   1.124
  123LA     O09 3884  -1.192   6.088   1.091
  123LA     O0A 3885  -1.404   6.145   1.159
  123LA     C0B 3886  -1.423   6.278   1.105
  123LA     H0C 3887  -1.486   6.267   1.017
  123LA     H0D 3888  -1.486   6.331   1.176
  123LA     C0E 3889  -1.305   6.370   1.069
  123LA     H0F 3890  -1.245   6.324   0.990
  123LA     H0G 3891  -1.346   6.460   1.022
  123LA     C0H 3892  -1.217   6.411   1.188
  123LA     H0I 3893  -1.236   6.342   1.270
  123LA     H0J 3894  -1.113   6.392   1.160
  123LA     C0K 3895  -1.228   6.559   1.233
  123LA     H0M 3896  -1.139   6.612   1.200
  123LA     H0N 3897  -1.310   6.611   1.184
  123LA     C0O 3898  -1.241   6.575   1.385
  123LA     H0P 3899  -1.172   6.507   1.436
  123LA     H0Q 3900  -1.208   6.675   1.412
  123LA     C0R 3901  -1.385   6.557   1.437
  123LA     H0S 3902  -1.411   6.643   1.499
  123LA     H0T 3903  -1.455   6.560   1.354
  123LA     C0U 3904  -1.408   6.428   1.517
  123LA     H0V 3905  -1.386   6.342   1.453
  123LA     H0W 3906  -1.338   6.422   1.601
  123LA     C0X 3907  -1.553   6.417   1.567
  123LA     H0Y 3908  -1.621   6.441   1.485
  123LA     H0Z 3909  -1.574   6.313   1.591
  123LA     C10 3910  -1.583   6.503   1.692
  123LA     H11 3911  -1.503   6.575   1.709
  123LA     H12 3912  -1.582   6.438   1.779
  123LA     C13 3913  -1.718   6.576   1.685
  123LA     H14 3914  -1.756   6.592   1.786
  123LA     H15 3915  -1.792   6.511   1.637
  123LA     C16 3916  -1.712   6.710   1.611
  123LA     H17 3917  -1.813   6.740   1.582
  123LA     H18 3918  -1.657   6.700   1.518
  123LA     C19 3919  -1.652   6.823   1.696
  123LA     H1A 3920  -1.711   6.841   1.786
  123LA     H1B 3921  -1.649   6.917   1.640
  123LA     H1C 3922  -1.550   6.800   1.727
  124LA     H00 3923  -1.588   5.892   0.889
  124LA     C01 3924  -1.544   5.930   0.797
  124LA     H02 3925  -1.574   5.859   0.720
  124LA     H03 3926  -1.599   6.020   0.770
  124LA     C04 3927  -1.391   5.949   0.800
  124LA     C05 3928  -1.334   5.879   0.685
  124LA     H06 3929  -1.251   5.941   0.653
  124LA     H07 3930  -1.293   5.785   0.720
  124LA     C08 3931  -1.354   6.098   0.791
  124LA     O09 3932  -1.240   6.139   0.770
  124LA     O0A 3933  -1.459   6.194   0.790
  124LA     C0B 3934  -1.472   6.312   0.701
  124LA     H0C 3935  -1.576   6.342   0.718
  124LA     H0D 3936  -1.472   6.275   0.598
  124LA     C0E 3937  -1.391   6.449   0.702
  124LA     H0F 3938  -1.357   6.473   0.802
  124LA     H0G 3939  -1.299   6.437   0.645
  124LA     C0H 3940  -1.471   6.576   0.646
  124LA     H0I 3941  -1.554   6.542   0.585
  124LA     H0J 3942  -1.518   6.626   0.730
  124LA     C0K 3943  -1.396   6.687   0.564
  124LA     H0M 3944  -1.317   6.731   0.625
  124LA     H0N 3945  -1.345   6.643   0.479
  124LA     C0O 3946  -1.484   6.805   0.510
  124LA     H0P 3947  -1.535   6.855   0.592
  124LA     H0Q 3948  -1.418   6.882   0.468
  124LA     C0R 3949  -1.583   6.765   0.397
  124LA     H0S 3950  -1.543   6.797   0.300
  124LA     H0T 3951  -1.587   6.657   0.391
  124LA     C0U 3952  -1.726   6.823   0.411
  124LA     H0V 3953  -1.744   6.857   0.513
  124LA     H0W 3954  -1.737   6.912   0.349
  124LA     C0X 3955  -1.836   6.721   0.377
  124LA     H0Y 3956  -1.833   6.640   0.450
  124LA     H0Z 3957  -1.933   6.768   0.388
  124LA     C10 3958  -1.825   6.660   0.236
  124LA     H11 3959  -1.730   6.607   0.225
  124LA     H12 3960  -1.824   6.739   0.161
  124LA     C13 3961  -1.940   6.562   0.206
  124LA     H14 3962  -2.031   6.619   0.190
  124LA     H15 3963  -1.958   6.500   0.293
  124LA     C16 3964  -1.913   6.469   0.086
  124LA     H17 3965  -1.996   6.399   0.078
  124LA     H18 3966  -1.825   6.408   0.106
  124LA     C19 3967  -1.898   6.544  -0.047
  124LA     H1A 3968  -1.887   6.474  -0.130
  124LA     H1B 3969  -1.810   6.609  -0.047
  124LA     H1C 3970  -1.985   6.606  -0.067
  125EH     H00 3971  -1.182   5.817   0.440
  125EH     C01 3972  -1.269   5.882   0.428
  125EH     H02 3973  -1.237   5.985   0.443
  125EH     H03 3974  -1.294   5.874   0.323
  125EH     C04 3975  -1.384   5.836   0.518
  125EH     C05 3976  -1.409   5.697   0.481
  125EH     H06 3977  -1.513   5.675   0.496
  125EH     H07 3978  -1.392   5.688   0.375
  125EH     C08 3979  -1.494   5.930   0.467
  125EH     O09 3980  -1.614   5.901   0.471
  125EH     O0A 3981  -1.453   6.044   0.385
  125EH     C0B 3982  -1.532   6.105   0.277
  125EH     H0C 3983  -1.629   6.136   0.316
  125EH     H0D 3984  -1.555   6.025   0.206
  125EH     C0E 3985  -1.467   6.226   0.193
  125EH     H0F 3986  -1.364   6.197   0.176
  125EH     C0G 3987  -1.529   6.250   0.049
  125EH     H0H 3988  -1.628   6.204   0.043
  125EH     H0I 3989  -1.469   6.196  -0.024
  125EH     C0J 3990  -1.545   6.395  -0.008
  125EH     H0K 3991  -1.451   6.449  -0.020
  125EH     H0M 3992  -1.611   6.458   0.051
  125EH     H0N 3993  -1.588   6.393  -0.108
  125EH     C0O 3994  -1.463   6.359   0.273
  125EH     H0P 3995  -1.557   6.412   0.260
  125EH     H0Q 3996  -1.460   6.336   0.380
  125EH     C0R 3997  -1.345   6.454   0.236
  125EH     H0S 3998  -1.383   6.556   0.235
  125EH     H0T 3999  -1.308   6.437   0.135
  125EH     C0U 4000  -1.227   6.448   0.334
  125EH     H0V 4001  -1.186   6.548   0.348
  125EH     H0W 4002  -1.262   6.415   0.432
  125EH     C0X 4003  -1.112   6.357   0.289
  125EH     H0Y 4004  -1.041   6.343   0.370
  125EH     H0Z 4005  -1.058   6.401   0.205
  125EH     H10 4006  -1.148   6.258   0.259
  126ST     H00 4007  -1.428   5.590   0.705
  126ST     C01 4008  -1.417   5.508   0.635
  126ST     H02 4009  -1.364   5.427   0.685
  126ST     H03 4010  -1.517   5.476   0.606
  126ST     C04 4011  -1.330   5.548   0.516
  126ST     C05 4012  -1.306   5.435   0.428
  126ST     H06 4013  -1.268   5.362   0.497
  126ST     H07 4014  -1.224   5.458   0.361
  126ST     C08 4015  -1.197   5.588   0.569
  126ST     O09 4016  -1.169   5.593   0.689
  126ST     O0A 4017  -1.104   5.618   0.474
  126ST     C0B 4018  -0.968   5.649   0.509
  126ST     H0C 4019  -0.937   5.573   0.580
  126ST     H0D 4020  -0.905   5.632   0.422
  126ST     C0E 4021  -0.939   5.789   0.571
  126ST     H0F 4022  -0.843   5.781   0.622
  126ST     H0G 4023  -1.011   5.807   0.651
  126ST     C0H 4024  -0.931   5.915   0.481
  126ST     H0I 4025  -0.916   6.002   0.546
  126ST     H0J 4026  -1.026   5.940   0.432
  126ST     C0K 4027  -0.823   5.916   0.373
  126ST     H0M 4028  -0.738   5.974   0.410
  126ST     H0N 4029  -0.783   5.816   0.359
  126ST     C0O 4030  -0.866   5.978   0.238
  126ST     H0P 4031  -0.782   5.970   0.168
  126ST     H0Q 4032  -0.880   6.086   0.251
  126ST     C0R 4033  -0.992   5.923   0.168
  126ST     H0S 4034  -0.996   5.960   0.066
  126ST     H0T 4035  -1.080   5.971   0.213
  126ST     C0U 4036  -1.018   5.771   0.170
  126ST     H0V 4037  -1.100   5.753   0.101
  126ST     H0W 4038  -1.058   5.747   0.269
  126ST     C0X 4039  -0.904   5.670   0.142
  126ST     H0Y 4040  -0.811   5.698   0.191
  126ST     H0Z 4041  -0.934   5.576   0.188
  126ST     C10 4042  -0.876   5.639  -0.005
  126ST     H11 4043  -0.817   5.548  -0.014
  126ST     H12 4044  -0.971   5.616  -0.053
  126ST     C13 4045  -0.803   5.755  -0.074
  126ST     H14 4046  -0.817   5.749  -0.182
  126ST     H15 4047  -0.853   5.847  -0.043
  126ST     C16 4048  -0.652   5.760  -0.047
  126ST     H17 4049  -0.630   5.708   0.046
  126ST     H18 4050  -0.601   5.699  -0.122
  126ST     C19 4051  -0.587   5.900  -0.038
  126ST     H1A 4052  -0.582   5.924   0.068
  126ST     H1B 4053  -0.483   5.894  -0.070
  126ST     C1C 4054  -0.656   6.022  -0.107
  126ST     H1D 4055  -0.765   6.020  -0.106
  126ST     H1E 4056  -0.632   6.107  -0.043
  126ST     C1F 4057  -0.605   6.061  -0.247
  126ST     H1G 4058  -0.628   6.167  -0.258
  126ST     H1H 4059  -0.496   6.057  -0.250
  126ST     C1I 4060  -0.671   5.991  -0.367
  126ST     H1J 4061  -0.655   6.053  -0.456
  126ST     H1K 4062  -0.779   5.989  -0.353
  126ST     C1M 4063  -0.621   5.849  -0.399
  126ST     H1N 4064  -0.677   5.811  -0.485
  126ST     H1O 4065  -0.649   5.782  -0.318
  126ST     C1P 4066  -0.471   5.836  -0.429
  126ST     H1Q 4067  -0.456   5.830  -0.537
  126ST     H1R 4068  -0.416   5.926  -0.398
  126ST     C1S 4069  -0.408   5.715  -0.361
  126ST     H1T 4070  -0.302   5.706  -0.385
  126ST     H1U 4071  -0.457   5.622  -0.391
  126ST     H1V 4072  -0.416   5.723  -0.252
  127LA     H00 4073  -1.580   5.362   0.435
  127LA     C01 4074  -1.511   5.279   0.422
  127LA     H02 4075  -1.482   5.240   0.520
  127LA     H03 4076  -1.569   5.202   0.371
  127LA     C04 4077  -1.392   5.316   0.336
  127LA     C05 4078  -1.309   5.204   0.301
  127LA     H06 4079  -1.274   5.166   0.396
  127LA     H07 4080  -1.235   5.233   0.228
  127LA     C08 4081  -1.420   5.413   0.230
  127LA     O09 4082  -1.511   5.495   0.234
  127LA     O0A 4083  -1.315   5.417   0.146
  127LA     C0B 4084  -1.273   5.531   0.076
  127LA     H0C 4085  -1.192   5.499   0.010
  127LA     H0D 4086  -1.226   5.594   0.152
  127LA     C0E 4087  -1.379   5.611   0.000
  127LA     H0F 4088  -1.425   5.678   0.073
  127LA     H0G 4089  -1.328   5.678  -0.069
  127LA     C0H 4090  -1.494   5.537  -0.072
  127LA     H0I 4091  -1.583   5.563  -0.016
  127LA     H0J 4092  -1.508   5.582  -0.170
  127LA     C0K 4093  -1.491   5.383  -0.090
  127LA     H0M 4094  -1.460   5.363  -0.193
  127LA     H0N 4095  -1.415   5.330  -0.032
  127LA     C0O 4096  -1.629   5.318  -0.072
  127LA     H0P 4097  -1.701   5.398  -0.089
  127LA     H0Q 4098  -1.641   5.246  -0.154
  127LA     C0R 4099  -1.673   5.248   0.061
  127LA     H0S 4100  -1.611   5.160   0.079
  127LA     H0T 4101  -1.660   5.314   0.146
  127LA     C0U 4102  -1.821   5.203   0.051
  127LA     H0V 4103  -1.886   5.290   0.051
  127LA     H0W 4104  -1.830   5.158  -0.047
  127LA     C0X 4105  -1.875   5.097   0.149
  127LA     H0Y 4106  -1.796   5.051   0.208
  127LA     H0Z 4107  -1.940   5.147   0.221
  127LA     C10 4108  -1.959   4.988   0.076
  127LA     H11 4109  -2.007   5.029  -0.013
  127LA     H12 4110  -2.042   4.956   0.139
  127LA     C13 4111  -1.880   4.862   0.035
  127LA     H14 4112  -1.938   4.802  -0.035
  127LA     H15 4113  -1.867   4.800   0.123
  127LA     C16 4114  -1.742   4.891  -0.024
  127LA     H17 4115  -1.686   4.798  -0.018
  127LA     H18 4116  -1.684   4.956   0.041
  127LA     C19 4117  -1.739   4.947  -0.168
  127LA     H1A 4118  -1.728   4.871  -0.245
  127LA     H1B 4119  -1.656   5.016  -0.180
  127LA     H1C 4120  -1.830   5.002  -0.194
  128ST     H00 4121  -1.181   4.905   0.177
  128ST     C01 4122  -1.189   5.002   0.225
  128ST     H02 4123  -1.136   4.995   0.320
  128ST     H03 4124  -1.133   5.066   0.157
  128ST     C04 4125  -1.337   5.043   0.237
  128ST     C05 4126  -1.408   4.976   0.333
  128ST     H06 4127  -1.514   4.972   0.312
  128ST     H07 4128  -1.381   4.992   0.436
  128ST     C08 4129  -1.392   5.020   0.098
  128ST     O09 4130  -1.392   5.104   0.010
  128ST     O0A 4131  -1.419   4.883   0.064
  128ST     C0B 4132  -1.427   4.829  -0.073
  128ST     H0C 4133  -1.481   4.898  -0.137
  128ST     H0D 4134  -1.325   4.832  -0.114
  128ST     C0E 4135  -1.480   4.679  -0.095
  128ST     H0F 4136  -1.540   4.645  -0.011
  128ST     H0G 4137  -1.393   4.614  -0.087
  128ST     C0H 4138  -1.547   4.640  -0.234
  128ST     H0I 4139  -1.485   4.563  -0.280
  128ST     H0J 4140  -1.533   4.723  -0.303
  128ST     C0K 4141  -1.699   4.595  -0.254
  128ST     H0M 4142  -1.663   4.493  -0.247
  128ST     H0N 4143  -1.714   4.673  -0.179
  128ST     C0O 4144  -1.818   4.535  -0.172
  128ST     H0P 4145  -1.863   4.450  -0.224
  128ST     H0Q 4146  -1.901   4.606  -0.169
  128ST     C0R 4147  -1.790   4.493  -0.027
  128ST     H0S 4148  -1.885   4.492   0.027
  128ST     H0T 4149  -1.732   4.571   0.023
  128ST     C0U 4150  -1.725   4.353  -0.014
  128ST     H0V 4151  -1.660   4.335  -0.100
  128ST     H0W 4152  -1.804   4.279  -0.025
  128ST     C0X 4153  -1.643   4.322   0.113
  128ST     H0Y 4154  -1.681   4.230   0.157
  128ST     H0Z 4155  -1.543   4.295   0.080
  128ST     C10 4156  -1.627   4.431   0.221
  128ST     H11 4157  -1.559   4.391   0.297
  128ST     H12 4158  -1.574   4.517   0.180
  128ST     C13 4159  -1.754   4.479   0.294
  128ST     H14 4160  -1.722   4.530   0.385
  128ST     H15 4161  -1.802   4.558   0.237
  128ST     C16 4162  -1.854   4.369   0.334
  128ST     H17 4163  -1.807   4.270   0.332
  128ST     H18 4164  -1.878   4.382   0.440
  128ST     C19 4165  -1.986   4.364   0.256
  128ST     H1A 4166  -1.966   4.333   0.154
  128ST     H1B 4167  -2.048   4.285   0.297
  128ST     C1C 4168  -2.069   4.495   0.255
  128ST     H1D 4169  -2.013   4.581   0.218
  128ST     H1E 4170  -2.147   4.481   0.180
  128ST     C1F 4171  -2.141   4.529   0.387
  128ST     H1G 4172  -2.228   4.589   0.358
  128ST     H1H 4173  -2.184   4.440   0.432
  128ST     C1I 4174  -2.064   4.617   0.489
  128ST     H1J 4175  -2.135   4.688   0.530
  128ST     H1K 4176  -1.992   4.680   0.436
  128ST     C1M 4177  -1.993   4.551   0.610
  128ST     H1N 4178  -1.981   4.629   0.684
  128ST     H1O 4179  -1.890   4.526   0.586
  128ST     C1P 4180  -2.065   4.433   0.679
  128ST     H1Q 4181  -2.074   4.457   0.786
  128ST     H1R 4182  -2.168   4.423   0.646
  128ST     C1S 4183  -1.992   4.298   0.668
  128ST     H1T 4184  -2.034   4.225   0.736
  128ST     H1U 4185  -1.886   4.308   0.692
  128ST     H1V 4186  -2.000   4.256   0.568
  129CH3n    C1 4187  -1.373   4.823   0.342
  129CH3n    H2 4188  -1.366   4.769   0.248
  129CH3n    H3 4189  -1.447   4.768   0.400
  129CH3n    H4 4190  -1.277   4.805   0.391
   5.05896   5.05896   5.05896
