Single PAMA block polymer
 4190
    1CH3n    C1    1   1.584   2.009   3.332 -0.7277 -0.7198 -0.2571
    1CH3n    H2    2   1.600   2.024   3.226  0.2394  0.5882  0.0663
    1CH3n    H3    3   1.482   1.969   3.340 -0.4389 -1.4418 -0.1804
    1CH3n    H4    4   1.568   2.106   3.381 -3.6814 -0.9843 -0.5754
    2MMA    H00    5   1.659   2.024   3.800 -1.3857  0.6088 -1.2668
    2MMA    C01    6   1.761   2.020   3.761 -0.3901  0.0036  1.3091
    2MMA    H02    7   1.827   2.093   3.808  0.0881  0.8058 -0.5886
    2MMA    H03    8   1.801   1.925   3.797  1.2987 -0.4467 -1.6150
    2MMA    O04    9   1.766   2.017   3.618  0.0549  0.5238  0.3834
    2MMA    C05   10   1.660   1.959   3.549 -0.3852 -0.1372 -0.1972
    2MMA    O06   11   1.547   1.940   3.597 -0.0748 -0.2372  0.0223
    2MMA    C07   12   1.700   1.931   3.408  0.3688  0.0308  0.2195
    2MMA    C08   13   1.708   1.803   3.377  0.1734  0.9439 -0.1606
    2MMA    H09   14   1.690   1.750   3.470  1.7019 -0.7105 -0.7592
    2MMA    H0A   15   1.805   1.789   3.331  0.3659 -1.4422  0.8860
    2MMA    C0B   16   1.816   2.014   3.361 -0.1285 -0.7210  0.7214
    2MMA    H0C   17   1.911   1.982   3.405  1.0729 -0.8789 -1.8882
    2MMA    H0D   18   1.827   1.994   3.255  0.8661 -1.7093  1.0021
    2MMA    H0E   19   1.805   2.122   3.373 -1.4510 -0.7799  0.1079
    3MMA    H00   20   1.535   1.962   2.950  0.1684  0.6074  1.5496
    3MMA    C01   21   1.536   1.853   2.951 -0.2512  0.5900  0.6640
    3MMA    H02   22   1.449   1.805   2.907  2.7329 -2.2757 -2.3914
    3MMA    H03   23   1.621   1.811   2.897 -0.6797 -1.7190  1.7245
    3MMA    O04   24   1.534   1.804   3.085 -0.1872  0.2306  0.0287
    3MMA    C05   25   1.644   1.779   3.158  0.1796  0.4667  0.3728
    3MMA    O06   26   1.761   1.806   3.120  0.5580 -0.3542  0.2219
    3MMA    C07   27   1.620   1.710   3.280 -0.0843  0.4136  0.1309
    3MMA    C08   28   1.683   1.585   3.283 -0.3734  0.1960  0.3175
    3MMA    H09   29   1.788   1.589   3.259 -0.2732 -0.0134  0.7315
    3MMA    H0A   30   1.648   1.537   3.373 -1.3377  1.6690  0.7391
    3MMA    C0B   31   1.476   1.712   3.334 -0.0641  1.2195 -0.5507
    3MMA    H0C   32   1.472   1.760   3.432  0.6124 -1.5381  0.8540
    3MMA    H0D   33   1.403   1.758   3.267 -0.1323 -1.3958 -2.3119
    3MMA    H0E   34   1.424   1.621   3.363  0.6417  1.3949  1.3936
    4MMA    H00   35   1.659   1.141   3.417 -2.0153 -1.5367  0.0998
    4MMA    C01   36   1.605   1.227   3.457 -0.2073 -0.5643  0.4986
    4MMA    H02   37   1.515   1.194   3.510 -0.5615  0.4575  0.5462
    4MMA    H03   38   1.673   1.266   3.533  1.2358 -1.0075 -0.5441
    4MMA    O04   39   1.580   1.324   3.358 -0.4489  0.5525 -0.0591
    4MMA    C05   40   1.677   1.358   3.272  0.0493  0.8920  0.6334
    4MMA    O06   41   1.788   1.324   3.293 -0.2790 -0.1061  0.3189
    4MMA    C07   42   1.638   1.470   3.178  0.1578 -0.0458 -0.5109
    4MMA    C08   43   1.507   1.485   3.146  0.3597  0.0337 -0.4671
    4MMA    H09   44   1.481   1.573   3.088 -1.1797  0.3303  0.6224
    4MMA    H0A   45   1.436   1.451   3.221 -0.4157 -0.1708 -1.2772
    4MMA    C0B   46   1.744   1.492   3.074 -0.2231 -0.0616  0.1790
    4MMA    H0C   47   1.848   1.507   3.102  0.4443  2.6440 -3.3505
    4MMA    H0D   48   1.749   1.396   3.023 -3.0551 -0.0096 -0.3169
    4MMA    H0E   49   1.721   1.567   2.998  0.2147 -1.7246 -1.6305
    5MMA    H00   50   1.056   1.243   3.158  0.2444 -0.0944  0.3688
    5MMA    C01   51   1.100   1.343   3.151 -0.0584  0.0261  0.2102
    5MMA    H02   52   1.064   1.372   3.052 -1.3657 -1.7155  0.1397
    5MMA    H03   53   1.057   1.410   3.226  2.4782  2.6366 -0.5685
    5MMA    O04   54   1.245   1.339   3.129 -0.5184 -0.4191  0.8263
    5MMA    C05   55   1.312   1.436   3.070  0.9693 -0.0212  0.5072
    5MMA    O06   56   1.253   1.538   3.042 -0.1563 -0.1133  0.1228
    5MMA    C07   57   1.446   1.398   3.028 -0.1290  0.2417  0.3202
    5MMA    C08   58   1.499   1.452   2.912 -0.4459 -0.0720 -0.2168
    5MMA    H09   59   1.478   1.555   2.885  1.0043 -0.0664 -1.4503
    5MMA    H0A   60   1.603   1.431   2.890  0.8241  2.5159  2.8601
    5MMA    C0B   61   1.489   1.252   3.066 -0.4387 -0.2231 -0.1273
    5MMA    H0C   62   1.471   1.212   3.166  0.0031 -1.2879 -0.4594
    5MMA    H0D   63   1.428   1.179   3.012  2.2903 -1.3312 -1.8331
    5MMA    H0E   64   1.592   1.222   3.048 -0.8977 -0.5242 -2.3860
    6MMA    H00   65   1.843   1.490   2.575  0.6017  0.6413  0.6422
    6MMA    C01   66   1.754   1.543   2.607 -0.2820 -0.4953  0.0773
    6MMA    H02   67   1.789   1.622   2.674 -3.6327  0.4429  0.8534
    6MMA    H03   68   1.696   1.580   2.523  0.6982 -0.9301 -0.7942
    6MMA    O04   69   1.658   1.464   2.672  0.4266  0.3666 -0.6430
    6MMA    C05   70   1.537   1.514   2.699 -0.0047  0.5110  0.9898
    6MMA    O06   71   1.508   1.633   2.667 -0.0441  1.0572  0.3552
    6MMA    C07   72   1.445   1.413   2.769 -0.1410 -0.1150  0.2332
    6MMA    C08   73   1.310   1.436   2.771  0.1590  0.7288  0.6804
    6MMA    H09   74   1.290   1.542   2.779 -0.5146  0.5155  1.9306
    6MMA    H0A   75   1.248   1.367   2.826  0.9128 -0.8270 -0.3914
    6MMA    C0B   76   1.498   1.266   2.752  0.3867 -0.1650  0.3105
    6MMA    H0C   77   1.594   1.250   2.801  0.8097 -0.5314 -0.6401
    6MMA    H0D   78   1.423   1.191   2.776  1.1129 -1.6556 -1.9176
    6MMA    H0E   79   1.519   1.249   2.647 -1.4862  0.2098 -0.1455
    7MMA    H00   80   0.949   1.675   2.713 -0.0379 -0.1114 -0.0624
    7MMA    C01   81   1.039   1.732   2.689 -0.4446  0.3416 -0.5359
    7MMA    H02   82   1.009   1.807   2.617 -1.0688 -1.1615 -1.8759
    7MMA    H03   83   1.075   1.769   2.785  0.9459 -3.0221  0.3007
    7MMA    O04   84   1.119   1.638   2.633  0.0796  0.0974 -0.0078
    7MMA    C05   85   1.118   1.511   2.682 -0.6445  0.7716  0.4988
    7MMA    O06   86   1.037   1.478   2.767  0.9239 -0.3093 -0.6942
    7MMA    C07   87   1.222   1.417   2.635  0.9249  0.0663  0.1570
    7MMA    C08   88   1.303   1.456   2.536 -0.7501  0.7100  0.0418
    7MMA    H09   89   1.395   1.401   2.523 -1.1002 -0.4240  2.2585
    7MMA    H0A   90   1.317   1.563   2.533 -0.7690  0.7109 -0.0211
    7MMA    C0B   91   1.171   1.272   2.640  0.2488  0.2035 -0.1326
    7MMA    H0C   92   1.101   1.252   2.559 -0.2679  0.5505  0.2319
    7MMA    H0D   93   1.254   1.202   2.638 -1.4976 -1.9485  1.0473
    7MMA    H0E   94   1.116   1.234   2.725 -0.2919 -0.7118 -0.8868
    8MMA    H00   95   1.519   1.727   2.223  1.4705  0.6987  0.8338
    8MMA    C01   96   1.459   1.743   2.312  0.1146 -0.0312  0.0658
    8MMA    H02   97   1.532   1.738   2.393 -1.1344 -1.0607  1.1575
    8MMA    H03   98   1.425   1.846   2.315  1.5648  0.4129  1.5190
    8MMA    O04   99   1.351   1.659   2.326 -0.1374  0.5943  0.0407
    8MMA    C05  100   1.375   1.525   2.337 -0.4204 -0.2586 -0.0072
    8MMA    O06  101   1.483   1.478   2.305 -0.1500 -0.5714  0.4416
    8MMA    C07  102   1.261   1.444   2.380 -0.0229  1.0538  0.2317
    8MMA    C08  103   1.137   1.497   2.378  0.0274 -0.2432 -0.8787
    8MMA    H09  104   1.129   1.602   2.403  0.8088 -0.3437 -0.2102
    8MMA    H0A  105   1.063   1.438   2.430  0.3691  1.5353  1.7358
    8MMA    C0B  106   1.280   1.289   2.349 -0.0474  0.0390  0.2870
    8MMA    H0C  107   1.183   1.243   2.368 -0.9399  1.1263 -1.5426
    8MMA    H0D  108   1.312   1.264   2.248 -0.4178  0.3840  0.0814
    8MMA    H0E  109   1.337   1.238   2.427 -1.1170 -2.1072 -0.2940
    9MMA    H00  110   0.689   1.623   2.419 -0.1395 -0.9004 -0.6261
    9MMA    C01  111   0.782   1.626   2.475 -0.2525  0.1941 -0.4854
    9MMA    H02  112   0.812   1.731   2.476 -1.6981  0.6390 -1.8847
    9MMA    H03  113   0.769   1.573   2.569  0.5280 -0.3998 -0.7053
    9MMA    O04  114   0.873   1.553   2.401 -0.5403 -0.1593 -0.7740
    9MMA    C05  115   0.944   1.596   2.298  0.1457  0.3856  0.2416
    9MMA    O06  116   0.934   1.712   2.259 -0.1568  0.0737 -0.6110
    9MMA    C07  117   1.046   1.505   2.245 -0.1189 -0.0504 -0.3693
    9MMA    C08  118   1.017   1.373   2.218  0.3295 -0.2840 -0.3079
    9MMA    H09  119   0.952   1.339   2.297 -1.1876  1.5230 -0.7201
    9MMA    H0A  120   1.103   1.323   2.177  0.4648  0.9836 -1.6394
    9MMA    C0B  121   1.148   1.574   2.157 -0.1113 -0.3309  0.4891
    9MMA    H0C  122   1.109   1.605   2.060 -1.0188  0.0416  0.9727
    9MMA    H0D  123   1.166   1.671   2.203  0.2350 -0.1686  0.0218
    9MMA    H0E  124   1.241   1.521   2.134 -0.3314 -0.5053  0.0080
   10MMA    H00  125   1.085   1.001   1.918  0.8357  0.1243 -0.0404
   10MMA    C01  126   0.996   1.058   1.890  0.7980  0.1665  0.1616
   10MMA    H02  127   1.006   1.077   1.783  1.6634  0.6191  0.3178
   10MMA    H03  128   0.905   0.999   1.902 -0.2041  2.0874  2.3276
   10MMA    O04  129   0.987   1.188   1.960 -0.5339  0.1515  0.0572
   10MMA    C05  130   0.955   1.200   2.094  0.1344 -0.1170  0.0468
   10MMA    O06  131   0.962   1.117   2.183  0.0248 -0.5139 -0.3981
   10MMA    C07  132   0.901   1.335   2.121  0.0406 -0.4114 -0.6769
   10MMA    C08  133   0.793   1.343   2.196 -0.0817  0.4623 -0.3826
   10MMA    H09  134   0.770   1.446   2.222 -0.5626  0.7086 -1.7545
   10MMA    H0A  135   0.782   1.274   2.278  1.3950  2.4821  1.5857
   10MMA    C0B  136   0.919   1.440   2.010 -0.6714 -0.5304 -0.1762
   10MMA    H0C  137   0.885   1.543   2.026 -0.9945 -1.0699  2.7928
   10MMA    H0D  138   1.022   1.443   1.975 -0.0105 -2.6493  1.5157
   10MMA    H0E  139   0.857   1.405   1.927 -1.4675  0.4379 -0.0125
   11MMA    H00  140   0.543   1.034   2.487 -2.2850 -1.3562 -0.1118
   11MMA    C01  141   0.505   1.126   2.443  0.7011 -0.1009 -0.1512
   11MMA    H02  142   0.401   1.106   2.419  0.9816  0.8569 -2.2971
   11MMA    H03  143   0.528   1.203   2.516  2.0847  0.2229 -0.9053
   11MMA    O04  144   0.580   1.167   2.326  0.0126  0.0350  0.7350
   11MMA    C05  145   0.577   1.290   2.277 -0.1940  0.1652  0.1164
   11MMA    O06  146   0.532   1.381   2.348 -0.0897 -0.3026  0.0859
   11MMA    C07  147   0.646   1.316   2.141  0.2644  0.4109  1.0260
   11MMA    C08  148   0.669   1.209   2.062 -0.0600 -0.5425  0.0884
   11MMA    H09  149   0.720   1.238   1.971  0.9282  1.3107  1.2113
   11MMA    H0A  150   0.710   1.130   2.122 -1.2297 -0.9689  0.3356
   11MMA    C0B  151   0.601   1.447   2.078  0.6248 -0.5338  0.1137
   11MMA    H0C  152   0.640   1.469   1.978  0.2118  1.3415  0.3416
   11MMA    H0D  153   0.492   1.456   2.086  0.4828 -0.2838 -1.7880
   11MMA    H0E  154   0.624   1.538   2.133 -2.8570  0.1467  0.5724
   12MMA    H00  155   0.547   1.359   1.616 -1.7175 -0.7533  0.7568
   12MMA    C01  156   0.626   1.348   1.690 -0.8697 -0.3095 -0.0770
   12MMA    H02  157   0.701   1.281   1.649  0.2896  0.8117  0.1876
   12MMA    H03  158   0.673   1.445   1.706 -1.1753 -0.1641 -0.0579
   12MMA    O04  159   0.580   1.295   1.815 -0.2124  0.1532 -0.1259
   12MMA    C05  160   0.591   1.156   1.846 -0.1405  0.1824 -0.3628
   12MMA    O06  161   0.652   1.080   1.778  0.0415 -0.0770  0.1734
   12MMA    C07  162   0.544   1.128   1.983  0.3130 -0.3063  0.2796
   12MMA    C08  163   0.424   1.189   2.027  0.5626 -0.1997 -0.1777
   12MMA    H09  164   0.403   1.288   1.990 -2.7748 -0.7581  0.0009
   12MMA    H0A  165   0.421   1.176   2.134  0.0256 -1.5828 -0.3506
   12MMA    C0B  166   0.577   0.988   2.024  0.3617  0.1625  0.9885
   12MMA    H0C  167   0.682   0.974   1.998 -0.3807 -1.6655 -1.2632
   12MMA    H0D  168   0.552   0.977   2.129  0.6280 -1.0143  0.9383
   12MMA    H0E  169   0.531   0.910   1.962  0.7418  1.1126 -0.5303
   13MMA    H00  170   0.343   1.223   1.576  0.4229  0.0273 -1.9086
   13MMA    C01  171   0.317   1.130   1.627 -0.2663  1.1294 -0.1837
   13MMA    H02  172   0.225   1.085   1.592  0.4209 -0.8817  0.5098
   13MMA    H03  173   0.404   1.069   1.600  0.0987  0.8296  1.6392
   13MMA    O04  174   0.308   1.160   1.764  0.2503 -0.2904  0.2361
   13MMA    C05  175   0.296   1.068   1.861 -0.1616  0.2800  0.6086
   13MMA    O06  176   0.319   0.951   1.838  0.0651 -0.3919 -0.2750
   13MMA    C07  177   0.280   1.122   1.995  0.0122 -0.5633  0.0001
   13MMA    C08  178   0.200   1.236   2.016  0.3398 -0.1015 -0.0911
   13MMA    H09  179   0.203   1.288   2.111 -0.2510 -2.2882  1.1682
   13MMA    H0A  180   0.201   1.305   1.933  1.5744 -1.3294 -1.1115
   13MMA    C0B  181   0.276   1.008   2.100  0.1626  0.1395  0.0924
   13MMA    H0C  182   0.177   0.962   2.092  0.4103 -0.8013  2.2566
   13MMA    H0D  183   0.338   0.919   2.088 -1.7798 -1.3070  0.4550
   13MMA    H0E  184   0.279   1.045   2.202  0.7850  3.6653 -1.1541
   14MMA    H00  185  -0.067   1.601   1.917  1.1278  0.1088  1.3257
   14MMA    C01  186   0.025   1.557   1.879  0.1657 -0.4274 -0.4517
   14MMA    H02  187   0.063   1.597   1.785  0.8410  0.0754  0.0328
   14MMA    H03  188   0.106   1.592   1.943  1.1573 -1.0113 -1.3751
   14MMA    O04  189   0.016   1.414   1.891 -0.1040  0.1205 -0.7720
   14MMA    C05  190   0.009   1.355   2.011 -0.1290 -0.7365 -0.1751
   14MMA    O06  191   0.012   1.419   2.116 -0.1736  0.0423 -0.9846
   14MMA    C07  192   0.042   1.212   2.011  0.7460  0.3965  0.4636
   14MMA    C08  193   0.017   1.143   1.893  0.6237 -0.2044  1.0347
   14MMA    H09  194   0.053   1.041   1.892 -0.7189 -0.6934  0.0040
   14MMA    H0A  195   0.036   1.201   1.804  0.2520 -2.6530 -0.7076
   14MMA    C0B  196   0.009   1.155   2.152  0.5763 -0.0332 -0.2248
   14MMA    H0C  197   0.079   1.171   2.234 -1.2332 -0.2621  1.3994
   14MMA    H0D  198  -0.075   1.209   2.195  0.6089  0.2881 -0.5623
   14MMA    H0E  199  -0.015   1.049   2.160  1.5831 -0.2120  0.5460
   15MMA    H00  200  -0.085   0.851   1.522  0.0541 -3.8108 -0.5686
   15MMA    C01  201  -0.013   0.846   1.604 -0.2264  0.7042  0.1274
   15MMA    H02  202   0.008   0.742   1.632  1.5198  0.4042 -2.0648
   15MMA    H03  203   0.079   0.883   1.557 -1.7076  2.0375 -1.7956
   15MMA    O04  204  -0.055   0.920   1.718  0.1990  0.0919 -0.3823
   15MMA    C05  205  -0.090   1.053   1.717  0.3083  0.2312  0.1900
   15MMA    O06  206  -0.071   1.127   1.617  0.5043  0.2197 -0.7048
   15MMA    C07  207  -0.136   1.102   1.853 -1.0356  0.2555 -0.1523
   15MMA    C08  208  -0.212   1.221   1.864 -0.5249 -0.6340  0.4581
   15MMA    H09  209  -0.171   1.292   1.794  0.3250 -0.9201  0.6628
   15MMA    H0A  210  -0.240   1.250   1.964  0.6376  1.8968  0.1063
   15MMA    C0B  211  -0.175   0.994   1.952 -0.2250  0.0413 -0.4596
   15MMA    H0C  212  -0.096   0.920   1.969  1.8671  1.7657 -2.3443
   15MMA    H0D  213  -0.214   1.032   2.046 -1.7045  0.3330 -1.1829
   15MMA    H0E  214  -0.256   0.933   1.912 -0.5796 -0.8707  1.6098
   16MMA    H00  215  -0.500   1.596   1.963 -0.6785 -1.4654 -1.7894
   16MMA    C01  216  -0.462   1.518   2.029 -0.1168  0.5140  0.2745
   16MMA    H02  217  -0.362   1.558   2.047 -0.0982  1.5539 -2.0287
   16MMA    H03  218  -0.532   1.514   2.113  1.7023  2.2644  1.9343
   16MMA    O04  219  -0.449   1.391   1.977 -0.7974 -0.3088 -0.1153
   16MMA    C05  220  -0.383   1.374   1.859 -0.2060 -0.2107 -0.2904
   16MMA    O06  221  -0.333   1.470   1.800  0.1830 -0.1367  0.0883
   16MMA    C07  222  -0.369   1.231   1.821  0.1797  0.6232 -0.0877
   16MMA    C08  223  -0.361   1.194   1.690 -0.8999  0.1086 -0.5945
   16MMA    H09  224  -0.350   1.087   1.686  1.3087  0.2925  0.3137
   16MMA    H0A  225  -0.301   1.259   1.628  3.0540 -2.5935  0.2037
   16MMA    C0B  226  -0.441   1.138   1.917 -0.7489  0.2217 -0.2866
   16MMA    H0C  227  -0.544   1.172   1.928 -0.6320  0.1438  1.0569
   16MMA    H0D  228  -0.433   1.033   1.887 -0.0863 -0.1750  1.2455
   16MMA    H0E  229  -0.410   1.144   2.021  0.7671 -1.7490 -0.5798
   17MMA    H00  230  -0.258   1.374   1.250  0.4292 -1.1061 -2.6036
   17MMA    C01  231  -0.294   1.277   1.286  0.0742 -0.3182 -0.7965
   17MMA    H02  232  -0.344   1.229   1.202  1.1441 -0.7146 -1.2144
   17MMA    H03  233  -0.205   1.224   1.322  0.2258 -0.1580 -0.9362
   17MMA    O04  234  -0.372   1.295   1.403  0.6216  0.0210  0.3279
   17MMA    C05  235  -0.407   1.179   1.479 -0.3393 -0.0565 -0.1533
   17MMA    O06  236  -0.386   1.066   1.441 -0.4480 -0.4719 -0.3955
   17MMA    C07  237  -0.488   1.205   1.598 -0.0195 -0.1436  0.4004
   17MMA    C08  238  -0.578   1.109   1.642 -0.6650  0.0979  1.2059
   17MMA    H09  239  -0.534   1.012   1.623 -0.1019  0.6135 -0.1948
   17MMA    H0A  240  -0.629   1.134   1.733  1.0495  0.8601  1.9706
   17MMA    C0B  241  -0.540   1.346   1.602  0.3313 -0.2735  0.0984
   17MMA    H0C  242  -0.587   1.369   1.506 -1.1911 -0.4283  0.7816
   17MMA    H0D  243  -0.599   1.382   1.687 -2.1201 -2.8591 -0.4455
   17MMA    H0E  244  -0.455   1.414   1.598  0.1339 -0.0456 -0.2410
   18MMA    H00  245  -0.841   1.459   1.709 -0.9974  0.7605 -0.0738
   18MMA    C01  246  -0.897   1.370   1.738  0.5495 -0.1400  0.1507
   18MMA    H02  247  -0.917   1.360   1.845 -0.3283 -2.1091 -0.1823
   18MMA    H03  248  -0.992   1.381   1.686  0.2112 -0.6964  0.6487
   18MMA    O04  249  -0.826   1.249   1.718  0.1694  0.8678 -0.4724
   18MMA    C05  250  -0.800   1.217   1.586 -0.2100  0.0110 -0.5970
   18MMA    O06  251  -0.834   1.297   1.496  0.4372 -0.2480  0.2604
   18MMA    C07  252  -0.722   1.093   1.569 -0.2545  0.0013  0.1873
   18MMA    C08  253  -0.797   0.994   1.631  0.4626 -0.3813  0.1758
   18MMA    H09  254  -0.856   1.018   1.718  0.3035  0.0496 -0.0460
   18MMA    H0A  255  -0.872   0.982   1.555  0.2558  1.3700  0.0693
   18MMA    C0B  256  -0.691   1.079   1.416 -0.1136 -0.7715  0.2788
   18MMA    H0C  257  -0.620   0.999   1.395  0.4696  0.1365 -1.3157
   18MMA    H0D  258  -0.777   1.066   1.350 -0.2383  0.3958  0.1959
   18MMA    H0E  259  -0.643   1.170   1.380  0.1280 -0.7434  0.6630
   19MMA    H00  260  -1.072   0.615   1.783 -1.0805  0.4243  0.5927
   19MMA    C01  261  -1.028   0.680   1.859  0.6074 -0.0002  0.0092
   19MMA    H02  262  -1.089   0.768   1.882  1.6680  0.8998 -0.5853
   19MMA    H03  263  -1.019   0.626   1.953  1.2681  1.8165  1.0232
   19MMA    O04  264  -0.904   0.734   1.831  0.5873 -0.2190 -0.4271
   19MMA    C05  265  -0.893   0.795   1.700 -0.1667  0.2431  0.1203
   19MMA    O06  266  -0.989   0.786   1.615 -0.3525 -0.0106 -0.4059
   19MMA    C07  267  -0.760   0.850   1.671  0.0214  0.7377 -0.4516
   19MMA    C08  268  -0.697   0.806   1.552  0.7150  0.5097 -0.2449
   19MMA    H09  269  -0.593   0.833   1.547  1.9549 -3.6076  1.2145
   19MMA    H0A  270  -0.757   0.813   1.462  0.7968 -0.2569 -0.3693
   19MMA    C0B  271  -0.677   0.875   1.798  0.1501  0.2493 -0.2705
   19MMA    H0C  272  -0.696   0.970   1.848 -0.0282  0.1063 -0.0649
   19MMA    H0D  273  -0.703   0.806   1.879 -1.7903  0.9003 -0.3164
   19MMA    H0E  274  -0.572   0.869   1.768  0.0023  2.0536 -1.2262
   20MMA    H00  275  -0.417   0.773   1.250 -0.4239  1.2136 -1.1560
   20MMA    C01  276  -0.502   0.711   1.221 -0.0392  0.2236 -0.2013
   20MMA    H02  277  -0.552   0.764   1.140  0.9819  0.4018 -0.7258
   20MMA    H03  278  -0.480   0.607   1.196 -2.5399 -0.1959 -0.7753
   20MMA    O04  279  -0.594   0.700   1.333  0.7482  0.3176 -0.1956
   20MMA    C05  280  -0.553   0.674   1.460 -0.2283  0.0817  0.0917
   20MMA    O06  281  -0.434   0.659   1.492  0.4120 -0.2885  0.2204
   20MMA    C07  282  -0.669   0.652   1.546  0.3011  0.5752  0.6800
   20MMA    C08  283  -0.640   0.617   1.677 -0.2961 -0.2307 -0.5366
   20MMA    H09  284  -0.729   0.607   1.738  1.9859  1.7999  3.3417
   20MMA    H0A  285  -0.551   0.663   1.715 -1.1264  0.4473  0.6240
   20MMA    C0B  286  -0.791   0.588   1.466  0.3434 -0.3500 -0.0896
   20MMA    H0C  287  -0.754   0.509   1.400 -0.5105 -1.0738  0.2768
   20MMA    H0D  288  -0.871   0.551   1.530  0.4978  0.3247  0.4922
   20MMA    H0E  289  -0.827   0.658   1.390 -0.5112  0.6858  1.2448
   21MMA    H00  290  -0.779   0.538   2.092 -0.5594 -1.2264  0.9912
   21MMA    C01  291  -0.778   0.434   2.058  0.5326 -0.8547 -0.1583
   21MMA    H02  292  -0.716   0.397   2.139 -1.0328 -1.4100  0.8111
   21MMA    H03  293  -0.879   0.394   2.067  0.0803  0.0455 -1.1012
   21MMA    O04  294  -0.729   0.424   1.926  0.8358 -0.5492  0.0901
   21MMA    C05  295  -0.635   0.509   1.869  1.0413  0.5642 -0.3015
   21MMA    O06  296  -0.578   0.589   1.942  0.8111 -0.4892 -0.1455
   21MMA    C07  297  -0.611   0.472   1.734 -1.1527 -0.6009 -0.1522
   21MMA    C08  298  -0.477   0.458   1.698  0.4329 -0.4216  0.1943
   21MMA    H09  299  -0.405   0.522   1.748 -2.7857  1.1129  3.0996
   21MMA    H0A  300  -0.475   0.435   1.593 -1.8839 -0.3431  0.1271
   21MMA    C0B  301  -0.721   0.380   1.682 -0.5644  0.1174 -0.2046
   21MMA    H0C  302  -0.813   0.440   1.684  1.3246  3.1131  0.2441
   21MMA    H0D  303  -0.710   0.352   1.577 -2.9725 -0.3215 -0.3763
   21MMA    H0E  304  -0.741   0.286   1.732  0.5742 -1.6999 -3.0286
   22MMA    H00  305  -0.096   0.224   1.481 -1.1065 -2.2702 -2.6326
   22MMA    C01  306  -0.174   0.297   1.458  0.0688  0.0135  0.1968
   22MMA    H02  307  -0.131   0.397   1.451 -1.7196  0.7771 -0.1192
   22MMA    H03  308  -0.208   0.286   1.355 -1.1871  1.1311  0.4858
   22MMA    O04  309  -0.280   0.300   1.550  0.2388  0.1882  0.7646
   22MMA    C05  310  -0.276   0.362   1.667 -0.0424  0.0180  0.3597
   22MMA    O06  311  -0.186   0.441   1.688 -0.2010  0.7732 -0.7159
   22MMA    C07  312  -0.388   0.333   1.749 -0.0450 -0.4105 -0.8584
   22MMA    C08  313  -0.470   0.227   1.721 -0.7477  0.3079 -0.0407
   22MMA    H09  314  -0.554   0.222   1.789 -1.3184  0.2901 -0.7539
   22MMA    H0A  315  -0.486   0.220   1.615  0.1291  0.1854 -0.1731
   22MMA    C0B  316  -0.352   0.357   1.896  0.1923  0.1963 -0.0996
   22MMA    H0C  317  -0.266   0.297   1.926 -0.3221 -0.8933 -0.7747
   22MMA    H0D  318  -0.329   0.459   1.926  1.9457  0.2890 -1.7008
   22MMA    H0E  319  -0.434   0.325   1.961 -0.4415  0.5392 -0.7268
   23MMA    H00  320  -0.542   0.069   2.176 -0.4705  2.7620  0.7344
   23MMA    C01  321  -0.591   0.054   2.080  0.3594  0.3970  0.6589
   23MMA    H02  322  -0.616  -0.052   2.081  1.6575  0.0653 -0.0681
   23MMA    H03  323  -0.689   0.101   2.072 -0.2922 -1.2383 -1.3713
   23MMA    O04  324  -0.510   0.088   1.965 -0.4084 -0.0006 -0.1860
   23MMA    C05  325  -0.531   0.036   1.845 -0.1505 -0.4505  0.6213
   23MMA    O06  326  -0.627  -0.039   1.834  0.4940 -0.1910  0.0028
   23MMA    C07  327  -0.433   0.071   1.738 -0.5785 -0.1682  0.0458
   23MMA    C08  328  -0.299   0.064   1.769 -0.4572 -0.4741 -0.3958
   23MMA    H09  329  -0.294   0.110   1.867  0.7395 -0.0937 -0.6239
   23MMA    H0A  330  -0.231   0.099   1.693  2.8069  1.3731  3.1488
   23MMA    C0B  331  -0.473   0.032   1.595  0.1091 -0.3572 -0.5822
   23MMA    H0C  332  -0.405   0.038   1.510 -0.5195 -2.3808 -1.2815
   23MMA    H0D  333  -0.488  -0.077   1.596  0.3828 -0.3955 -0.8332
   23MMA    H0E  334  -0.577   0.052   1.569 -0.6681 -0.0702  2.6182
   24MMA    H00  335  -0.020   0.200   2.088 -1.8188 -0.0643  0.0394
   24MMA    C01  336  -0.011   0.169   1.984 -0.7904  0.3501  0.0056
   24MMA    H02  337  -0.047   0.245   1.914  1.8339 -0.4271 -2.3164
   24MMA    H03  338   0.093   0.147   1.960 -0.7344 -1.5814  1.9525
   24MMA    O04  339  -0.097   0.061   1.954 -0.1749 -0.2856 -0.0259
   24MMA    C05  340  -0.097   0.002   1.822  0.0028 -0.5146  0.0478
   24MMA    O06  341   0.001   0.022   1.751 -0.8646  0.8819 -0.1695
   24MMA    C07  342  -0.218  -0.071   1.792  1.1339 -0.9176 -0.7865
   24MMA    C08  343  -0.289  -0.131   1.899 -0.0434 -0.6983 -0.5555
   24MMA    H09  344  -0.283  -0.068   1.987  1.3552  0.7151 -1.6192
   24MMA    H0A  345  -0.385  -0.176   1.879 -1.0638  0.8870  0.6359
   24MMA    C0B  346  -0.214  -0.129   1.649  0.0560  0.3162 -0.4116
   24MMA    H0C  347  -0.127  -0.195   1.652  0.6154  1.1110  3.7127
   24MMA    H0D  348  -0.299  -0.194   1.626  0.2459 -0.3210  0.6478
   24MMA    H0E  349  -0.209  -0.051   1.573 -0.6914  2.0580  1.2883
   25MMA    H00  350  -0.609  -0.507   2.002  0.1654 -0.6184 -0.3553
   25MMA    C01  351  -0.567  -0.418   2.047  0.0428 -0.6937 -0.0915
   25MMA    H02  352  -0.642  -0.339   2.033 -0.4839 -1.0941  0.4667
   25MMA    H03  353  -0.547  -0.436   2.153 -1.2083 -0.7811  0.1406
   25MMA    O04  354  -0.443  -0.378   1.986 -0.2434  0.2926  0.2432
   25MMA    C05  355  -0.367  -0.277   2.036 -0.3719 -0.2874  0.6908
   25MMA    O06  356  -0.398  -0.206   2.132 -0.1764  0.5867 -0.6655
   25MMA    C07  357  -0.241  -0.268   1.964 -0.0628  0.1828 -0.2524
   25MMA    C08  358  -0.127  -0.228   2.028  0.1855 -1.0177  0.3331
   25MMA    H09  359  -0.132  -0.148   2.100 -1.7743 -0.7956 -0.0037
   25MMA    H0A  360  -0.050  -0.217   1.954 -0.4274  0.0078 -0.1540
   25MMA    C0B  361  -0.229  -0.370   1.848 -0.2871 -0.7079 -0.1297
   25MMA    H0C  362  -0.137  -0.360   1.790  1.2995  1.6005  2.6530
   25MMA    H0D  363  -0.232  -0.476   1.873  0.6662 -0.3216  1.7323
   25MMA    H0E  364  -0.315  -0.374   1.781 -0.9419 -0.6466  0.7056
   26MMA    H00  365   0.253  -0.073   2.024  0.3909  0.2954  2.8189
   26MMA    C01  366   0.268  -0.180   2.036 -0.2232 -0.1759 -0.3739
   26MMA    H02  367   0.333  -0.212   1.955 -1.4826 -0.2404 -1.3869
   26MMA    H03  368   0.321  -0.201   2.129 -1.7457  1.9660  1.0148
   26MMA    O04  369   0.142  -0.248   2.034 -0.7155  0.4042  0.2425
   26MMA    C05  370   0.057  -0.236   2.147 -0.7476 -0.6679 -0.6133
   26MMA    O06  371   0.086  -0.161   2.241 -0.2232  0.3223  0.1310
   26MMA    C07  372  -0.060  -0.315   2.135  0.2324  0.2249 -0.8310
   26MMA    C08  373  -0.047  -0.433   2.069 -0.0419  0.8596  0.0267
   26MMA    H09  374   0.006  -0.425   1.975  1.7244  0.6072  0.9781
   26MMA    H0A  375  -0.144  -0.480   2.061 -0.3713  1.1709  1.9704
   26MMA    C0B  376  -0.157  -0.299   2.257  0.8748 -0.0790  0.7770
   26MMA    H0C  377  -0.184  -0.195   2.278  1.5405  0.1671  0.4251
   26MMA    H0D  378  -0.253  -0.351   2.265 -0.9723  3.2911  1.4332
   26MMA    H0E  379  -0.103  -0.320   2.349  0.6662 -1.1546  0.6597
   27MMA    H00  380  -0.238  -0.911   2.071  0.2436  1.7426  2.4890
   27MMA    C01  381  -0.197  -0.835   2.005 -0.0079 -0.2435 -0.0204
   27MMA    H02  382  -0.116  -0.868   1.940  0.1791 -1.0765  0.6362
   27MMA    H03  383  -0.272  -0.801   1.933 -0.5468 -0.6588  0.3419
   27MMA    O04  384  -0.133  -0.736   2.088  0.2905  0.4698  0.3921
   27MMA    C05  385  -0.046  -0.650   2.028  0.0885  0.0216 -0.1821
   27MMA    O06  386  -0.020  -0.654   1.908 -0.4208  0.2772  0.9004
   27MMA    C07  387   0.024  -0.566   2.130 -0.4244 -0.1022 -0.2513
   27MMA    C08  388   0.153  -0.531   2.107 -0.3136 -0.3341 -0.0592
   27MMA    H09  389   0.191  -0.458   2.177 -0.4615 -1.5432  1.3021
   27MMA    H0A  390   0.175  -0.516   2.003  0.7924 -0.2676  0.1757
   27MMA    C0B  391  -0.035  -0.585   2.273 -0.5380 -0.4173 -0.1338
   27MMA    H0C  392  -0.140  -0.559   2.266 -0.6811 -0.1860  2.3167
   27MMA    H0D  393  -0.027  -0.687   2.310  0.6038  0.1309  1.1660
   27MMA    H0E  394   0.007  -0.521   2.350  3.0088 -2.0585 -0.5852
   28MMA    H00  395   0.587  -0.405   2.180  1.8205  0.2643  0.9736
   28MMA    C01  396   0.515  -0.397   2.262  0.6472 -0.4596  0.0344
   28MMA    H02  397   0.567  -0.411   2.357  0.3370  0.8209  0.4010
   28MMA    H03  398   0.462  -0.303   2.249 -0.5626 -1.1222  0.1171
   28MMA    O04  399   0.414  -0.493   2.246  0.4086 -0.7459 -0.0824
   28MMA    C05  400   0.368  -0.527   2.120 -0.2570  0.1046 -0.0808
   28MMA    O06  401   0.419  -0.480   2.016 -0.0648 -0.1175  0.1855
   28MMA    C07  402   0.271  -0.634   2.128  0.0300 -0.0809  0.0096
   28MMA    C08  403   0.258  -0.716   2.015 -0.2793  0.0651  0.1078
   28MMA    H09  404   0.180  -0.787   2.039  1.7150 -2.6835 -1.2296
   28MMA    H0A  405   0.274  -0.671   1.918 -0.6639 -0.6888 -0.3053
   28MMA    C0B  406   0.246  -0.688   2.267  0.8262  0.4414 -0.1547
   28MMA    H0C  407   0.348  -0.711   2.298  1.2060  1.0651 -0.9151
   28MMA    H0D  408   0.206  -0.615   2.337 -1.0644 -0.7166 -0.0144
   28MMA    H0E  409   0.192  -0.782   2.275  1.7925 -0.1158 -0.0258
   29MMA    H00  410   0.222  -1.162   2.195 -1.7452 -2.0493 -1.6346
   29MMA    C01  411   0.152  -1.100   2.140 -1.0745  0.4564  0.2323
   29MMA    H02  412   0.072  -1.164   2.103  0.4648 -0.7054 -1.1351
   29MMA    H03  413   0.107  -1.036   2.216  1.2322  2.5463 -0.0823
   29MMA    O04  414   0.206  -1.008   2.042  0.0701 -0.0200 -0.3684
   29MMA    C05  415   0.315  -0.937   2.086 -0.4076 -0.1056  0.2129
   29MMA    O06  416   0.354  -0.942   2.204  0.1855  0.2059  0.2272
   29MMA    C07  417   0.360  -0.839   1.985  0.2404  0.7468 -0.0484
   29MMA    C08  418   0.325  -0.881   1.861 -0.0080 -0.3756  0.2312
   29MMA    H09  419   0.343  -0.988   1.862 -3.4085 -1.0148 -0.0332
   29MMA    H0A  420   0.217  -0.885   1.864 -0.0300  0.8562  2.5512
   29MMA    C0B  421   0.507  -0.802   2.015 -0.3347  0.6688  0.2614
   29MMA    H0C  422   0.579  -0.853   1.950 -0.5546 -0.0861  0.6104
   29MMA    H0D  423   0.516  -0.694   2.016  2.1298  0.5174 -0.1760
   29MMA    H0E  424   0.544  -0.842   2.110  1.8803 -1.4585 -1.4298
   30MMA    H00  425   0.035  -0.857   1.512  0.8548  0.3972 -0.3687
   30MMA    C01  426   0.040  -0.911   1.607 -0.1792  0.6213 -0.1769
   30MMA    H02  427  -0.001  -1.010   1.586  1.5537 -0.1782  0.1264
   30MMA    H03  428  -0.013  -0.863   1.689 -1.9063  0.3689 -1.1192
   30MMA    O04  429   0.175  -0.922   1.642  0.7386 -0.6065  0.6740
   30MMA    C05  430   0.243  -0.807   1.679  0.2855  0.1919  0.3543
   30MMA    O06  431   0.195  -0.693   1.679  0.0124 -0.1013 -0.0992
   30MMA    C07  432   0.380  -0.833   1.720 -0.0295 -1.2576 -0.6449
   30MMA    C08  433   0.440  -0.950   1.688 -0.0161  0.2831  0.2598
   30MMA    H09  434   0.541  -0.966   1.722 -0.7120 -4.3650  0.4124
   30MMA    H0A  435   0.374  -1.035   1.683  2.4861 -1.7284  0.9413
   30MMA    C0B  436   0.467  -0.709   1.738 -0.6212 -0.1236  1.0550
   30MMA    H0C  437   0.413  -0.629   1.788  0.3733  2.5806 -2.0075
   30MMA    H0D  438   0.563  -0.721   1.787 -0.2202  0.7906  0.4904
   30MMA    H0E  439   0.487  -0.668   1.639 -2.0326  2.4545  1.8114
   31MMA    H00  440   0.890  -1.072   1.519  0.5588  0.2430  0.7662
   31MMA    C01  441   0.841  -0.986   1.565 -0.4161  0.0185  0.1736
   31MMA    H02  442   0.843  -1.005   1.672  0.9944  1.8631  0.5024
   31MMA    H03  443   0.915  -0.906   1.556  2.0609 -2.1169  0.9337
   31MMA    O04  444   0.707  -0.971   1.526 -0.2784  0.3353  0.4035
   31MMA    C05  445   0.610  -1.050   1.566 -0.5672  1.0985 -0.2090
   31MMA    O06  446   0.634  -1.156   1.620 -0.4590 -0.6671  0.1597
   31MMA    C07  447   0.478  -0.994   1.534 -0.2622 -0.1097  0.0580
   31MMA    C08  448   0.376  -1.085   1.500  0.1609  0.2256  0.0594
   31MMA    H09  449   0.277  -1.042   1.497  0.6304  1.3086  0.0220
   31MMA    H0A  450   0.385  -1.179   1.554  1.5632 -0.4866 -1.3723
   31MMA    C0B  451   0.484  -0.859   1.469  0.0774  0.6757 -1.0510
   31MMA    H0C  452   0.562  -0.792   1.505 -1.2411  0.5571  2.1969
   31MMA    H0D  453   0.500  -0.861   1.361 -4.1605  0.3245 -1.7562
   31MMA    H0E  454   0.391  -0.803   1.464 -0.8073 -0.8286 -1.6745
   32MMA    H00  455   0.079  -1.435   1.397 -1.6662 -0.6474  1.0564
   32MMA    C01  456   0.109  -1.389   1.491 -0.0730 -0.6896  0.5762
   32MMA    H02  457   0.029  -1.365   1.561 -1.0501 -1.4910 -0.2490
   32MMA    H03  458   0.167  -1.472   1.531 -0.0494 -1.0951 -0.2833
   32MMA    O04  459   0.184  -1.269   1.458 -0.2105  0.0816 -0.2188
   32MMA    C05  460   0.302  -1.269   1.390 -0.0329  0.2530 -0.1864
   32MMA    O06  461   0.360  -1.376   1.377  0.4074  0.9113  0.0325
   32MMA    C07  462   0.367  -1.144   1.356  0.1624  0.1329 -0.2128
   32MMA    C08  463   0.281  -1.050   1.296 -0.1268 -0.9921 -0.3130
   32MMA    H09  464   0.179  -1.046   1.332  0.5066  0.2705  1.3715
   32MMA    H0A  465   0.330  -0.955   1.280 -0.3367 -1.2364 -2.6612
   32MMA    C0B  466   0.508  -1.163   1.301 -0.6057 -0.3071  0.3139
   32MMA    H0C  467   0.530  -1.230   1.218 -0.0100  0.1424  0.1075
   32MMA    H0D  468   0.549  -1.064   1.279 -1.4329 -0.2099 -0.8506
   32MMA    H0E  469   0.557  -1.210   1.386 -1.5476 -2.7724 -0.4717
   33MMA    H00  470  -0.081  -0.797   1.213  1.3977 -0.4548  0.3122
   33MMA    C01  471  -0.095  -0.898   1.176 -0.4670 -0.2905  0.5203
   33MMA    H02  472  -0.191  -0.933   1.214  0.4730 -1.3804  1.9871
   33MMA    H03  473  -0.120  -0.874   1.072  0.2926 -1.3498  0.0838
   33MMA    O04  474   0.013  -0.990   1.189 -1.0708  0.3767 -0.7340
   33MMA    C05  475   0.141  -0.938   1.164  0.5180 -0.3980 -1.2197
   33MMA    O06  476   0.173  -0.819   1.169  0.3747 -0.2221 -0.1699
   33MMA    C07  477   0.243  -1.044   1.143 -0.0021  0.2509  0.0538
   33MMA    C08  478   0.209  -1.173   1.120  0.7195  0.1674 -0.1108
   33MMA    H09  479   0.127  -1.203   1.182  0.6059 -2.7525 -1.5891
   33MMA    H0A  480   0.293  -1.241   1.114 -1.1343 -2.2647  0.7918
   33MMA    C0B  481   0.375  -0.997   1.077 -0.2773  0.7205 -0.0449
   33MMA    H0C  482   0.448  -1.078   1.077  0.7171  1.6022 -0.8376
   33MMA    H0D  483   0.361  -0.959   0.976  0.5595 -0.9708 -0.8252
   33MMA    H0E  484   0.425  -0.913   1.124 -2.8326  2.2717  0.0095
   34MMA    H00  485   0.511  -1.301   0.741  0.6763  0.7573  0.6154
   34MMA    C01  486   0.511  -1.219   0.813  0.2855  0.7694  0.6062
   34MMA    H02  487   0.578  -1.247   0.894  0.9990  1.4964  0.2818
   34MMA    H03  488   0.554  -1.138   0.753  0.7344 -1.1007 -1.6773
   34MMA    O04  489   0.383  -1.185   0.867  0.4177 -0.0816 -0.4982
   34MMA    C05  490   0.306  -1.279   0.929  0.5920  0.2789 -0.1931
   34MMA    O06  491   0.344  -1.394   0.948 -0.1822  0.1498  0.0338
   34MMA    C07  492   0.171  -1.227   0.972 -0.3001 -0.8319 -0.1822
   34MMA    C08  493   0.119  -1.116   0.914 -0.1620  0.3171  0.1660
   34MMA    H09  494   0.031  -1.081   0.967 -0.0265 -0.1724  0.7143
   34MMA    H0A  495   0.195  -1.048   0.880  1.1439 -0.9253  0.5645
   34MMA    C0B  496   0.079  -1.333   1.021 -0.1938 -0.0537 -0.0238
   34MMA    H0C  497   0.057  -1.394   0.934 -0.1115  0.1372 -0.1776
   34MMA    H0D  498   0.125  -1.413   1.080  1.8441  1.6568  0.7901
   34MMA    H0E  499  -0.017  -1.304   1.064  0.0699  1.5756 -0.4939
   35MMA    H00  500   0.162  -0.801   0.509 -1.4198 -0.9877  0.2403
   35MMA    C01  501   0.221  -0.870   0.568 -0.4880 -0.3418  0.0767
   35MMA    H02  502   0.298  -0.903   0.498 -0.7616  1.1055 -0.9322
   35MMA    H03  503   0.271  -0.805   0.641  0.3375  0.1420 -0.9040
   35MMA    O04  504   0.151  -0.985   0.608 -0.2838 -0.1994 -0.2704
   35MMA    C05  505   0.086  -0.993   0.730  0.3214 -0.6155  0.3675
   35MMA    O06  506   0.058  -0.888   0.800  0.6592 -0.6443 -0.3335
   35MMA    C07  507   0.049  -1.129   0.766 -0.0538  0.4328  0.3805
   35MMA    C08  508  -0.084  -1.151   0.803 -0.0709  0.7366 -0.3561
   35MMA    H09  509  -0.143  -1.071   0.844 -1.6958 -0.7712  0.2930
   35MMA    H0A  510  -0.078  -1.249   0.848  1.8353  0.5089 -1.0453
   35MMA    C0B  511   0.124  -1.229   0.693 -0.0808  0.1160  0.3643
   35MMA    H0C  512   0.230  -1.212   0.678 -0.1859  1.1282  0.7559
   35MMA    H0D  513   0.109  -1.332   0.728  0.1848 -0.3315 -0.8089
   35MMA    H0E  514   0.085  -1.239   0.591  1.3550 -0.8010 -0.1082
   36MMA    H00  515  -0.553  -0.965   0.742  1.1073 -0.3829 -0.7639
   36MMA    C01  516  -0.476  -0.964   0.818  0.1602  0.0085  0.1988
   36MMA    H02  517  -0.455  -0.860   0.844 -0.8424  1.2162 -3.5180
   36MMA    H03  518  -0.508  -1.018   0.908 -0.1226 -0.3331 -0.1074
   36MMA    O04  519  -0.355  -1.008   0.752 -0.3757  0.0174  0.2385
   36MMA    C05  520  -0.299  -1.127   0.789  0.7409 -0.0928  0.5463
   36MMA    O06  521  -0.332  -1.193   0.889  0.4608  0.2632 -0.1817
   36MMA    C07  522  -0.198  -1.173   0.690  0.1877 -0.4303 -0.9047
   36MMA    C08  523  -0.194  -1.303   0.663 -0.0059  0.1756 -0.0623
   36MMA    H09  524  -0.221  -1.360   0.751  2.2824 -0.0322  0.5209
   36MMA    H0A  525  -0.102  -1.330   0.613 -0.4341  1.1255 -1.3729
   36MMA    C0B  526  -0.153  -1.065   0.586 -0.0667 -0.6232 -1.2346
   36MMA    H0C  527  -0.230  -1.041   0.513  0.3093 -2.1954 -2.1895
   36MMA    H0D  528  -0.142  -0.973   0.642 -0.7657 -1.0059 -0.4616
   36MMA    H0E  529  -0.066  -1.089   0.525  0.9442 -0.0097 -0.0344
   37MMA    H00  530  -0.501  -1.371   0.910 -2.2013 -1.5325  2.2834
   37MMA    C01  531  -0.512  -1.458   0.846 -0.2153  0.1276 -0.4196
   37MMA    H02  532  -0.502  -1.548   0.906 -3.4852 -0.5903 -0.8606
   37MMA    H03  533  -0.614  -1.452   0.808 -0.6622  0.2867  0.8145
   37MMA    O04  534  -0.426  -1.471   0.735  0.2817 -0.2996  0.4449
   37MMA    C05  535  -0.426  -1.373   0.642 -0.1097  0.3460  0.1580
   37MMA    O06  536  -0.511  -1.283   0.639  0.2473  0.0793  0.1445
   37MMA    C07  537  -0.305  -1.369   0.562  0.2675 -0.0294 -0.2424
   37MMA    C08  538  -0.276  -1.499   0.522 -0.6132  0.0465 -0.2889
   37MMA    H09  539  -0.256  -1.508   0.417  0.4768 -2.4301  0.0930
   37MMA    H0A  540  -0.341  -1.574   0.566 -0.5752 -0.1377 -0.5463
   37MMA    C0B  541  -0.312  -1.273   0.441  0.5344  0.0802 -0.3124
   37MMA    H0C  542  -0.210  -1.240   0.421  0.0884  1.3117 -0.6585
   37MMA    H0D  543  -0.352  -1.322   0.353 -0.0064 -0.0598  0.0107
   37MMA    H0E  544  -0.384  -1.192   0.453  1.4876  0.9771 -0.4719
   38MMA    H00  545  -0.315  -1.735   0.895 -0.3532  0.3104  0.6166
   38MMA    C01  546  -0.222  -1.680   0.888 -0.3353  0.1938 -0.0648
   38MMA    H02  547  -0.230  -1.577   0.925  2.0896 -0.4785  2.5159
   38MMA    H03  548  -0.140  -1.744   0.920 -0.5691 -0.0250  0.0987
   38MMA    O04  549  -0.219  -1.671   0.746  0.3204 -0.4217 -0.3918
   38MMA    C05  550  -0.127  -1.588   0.696 -0.2977  0.3649  0.0874
   38MMA    O06  551  -0.043  -1.525   0.764  0.2786 -0.0840 -0.2932
   38MMA    C07  552  -0.138  -1.585   0.547  0.2229 -0.3464  0.2114
   38MMA    C08  553  -0.174  -1.706   0.487  0.4192  0.0835 -0.1218
   38MMA    H09  554  -0.251  -1.765   0.536  1.7740 -1.8836 -0.2957
   38MMA    H0A  555  -0.185  -1.705   0.380  0.3077  0.4001 -0.1072
   38MMA    C0B  556  -0.031  -1.509   0.475  0.0117  0.0647 -0.2454
   38MMA    H0C  557  -0.016  -1.560   0.380  0.4834 -3.3620  1.5913
   38MMA    H0D  558  -0.047  -1.406   0.444 -1.6484 -0.4674 -1.1951
   38MMA    H0E  559   0.060  -1.524   0.534 -0.5481  0.4831  0.7274
   39MMA    H00  560  -0.114  -1.876   0.042 -0.6860 -0.8194  0.1810
   39MMA    C01  561  -0.060  -1.834   0.126 -0.0340 -1.4240  0.0720
   39MMA    H02  562   0.037  -1.881   0.115 -0.2233 -1.4729 -1.4780
   39MMA    H03  563  -0.041  -1.728   0.109 -1.1329 -1.0806  0.9210
   39MMA    O04  564  -0.089  -1.869   0.258 -0.1989  0.1226 -0.3826
   39MMA    C05  565  -0.023  -1.818   0.365  0.7017 -0.0133  0.2625
   39MMA    O06  566   0.089  -1.768   0.350  0.4429 -0.1772 -0.2057
   39MMA    C07  567  -0.085  -1.845   0.488  0.4206 -0.3388 -0.5963
   39MMA    C08  568  -0.012  -1.844   0.604 -0.5684 -0.1358 -0.5572
   39MMA    H09  569   0.047  -1.754   0.611  1.7386 -1.5342 -1.5565
   39MMA    H0A  570  -0.066  -1.861   0.696  2.5441 -0.9788  1.1602
   39MMA    C0B  571  -0.193  -1.957   0.481  1.0630 -0.2417 -0.4595
   39MMA    H0C  572  -0.272  -1.935   0.410  0.1595 -2.3737 -0.1671
   39MMA    H0D  573  -0.154  -2.054   0.452  0.8324 -0.4565 -0.0666
   39MMA    H0E  574  -0.230  -1.973   0.583  1.8662 -2.1303 -0.4455
   40MMA    H00  575   0.183  -1.671   0.920 -0.3984 -1.8540  0.2232
   40MMA    C01  576   0.264  -1.690   0.850 -0.7191 -0.6003 -0.4930
   40MMA    H02  577   0.300  -1.600   0.799 -1.6608  0.8138  1.2852
   40MMA    H03  578   0.343  -1.706   0.923 -0.2462  1.3583 -0.5462
   40MMA    O04  579   0.234  -1.794   0.764  0.5432  0.0030  0.1056
   40MMA    C05  580   0.127  -1.864   0.776 -0.0802  0.7565  0.3491
   40MMA    O06  581   0.064  -1.881   0.885  0.3466 -0.0835  0.5987
   40MMA    C07  582   0.098  -1.945   0.654 -0.3987 -0.1175 -0.4111
   40MMA    C08  583   0.026  -2.062   0.656 -0.8256  0.3425  0.1633
   40MMA    H09  584  -0.060  -2.058   0.720 -0.3255 -1.1870  0.9633
   40MMA    H0A  585   0.012  -2.110   0.560  1.0751  1.5882 -0.7729
   40MMA    C0B  586   0.211  -1.945   0.551 -0.1682  0.2291 -0.2725
   40MMA    H0C  587   0.177  -1.978   0.453 -0.3379  2.9173 -1.1661
   40MMA    H0D  588   0.255  -1.847   0.535 -0.0228  0.1434 -0.3951
   40MMA    H0E  589   0.294  -2.003   0.589  0.4664  2.2033  1.4609
   41MMA    H00  590  -0.219  -2.394   0.538 -0.8039 -2.9827 -0.1493
   41MMA    C01  591  -0.120  -2.441   0.539  0.7134  0.1172 -0.3134
   41MMA    H02  592  -0.118  -2.506   0.626 -2.8545 -0.8130 -0.8453
   41MMA    H03  593  -0.098  -2.506   0.454 -1.3715  1.3784 -1.8825
   41MMA    O04  594  -0.026  -2.337   0.568 -0.8937 -1.1483 -0.4301
   41MMA    C05  595  -0.037  -2.272   0.688 -0.5917 -0.3135 -0.0699
   41MMA    O06  596  -0.137  -2.273   0.756  0.2029 -0.0822 -0.0871
   41MMA    C07  597   0.090  -2.195   0.715 -0.7530 -0.1824  0.1178
   41MMA    C08  598   0.117  -2.155   0.838  0.4230  0.7894 -0.3438
   41MMA    H09  599   0.022  -2.139   0.888 -0.3645  3.0756 -2.4616
   41MMA    H0A  600   0.202  -2.088   0.838  2.1218 -1.3216 -0.2604
   41MMA    C0B  601   0.210  -2.239   0.631  1.2000 -0.2708 -1.0171
   41MMA    H0C  602   0.201  -2.235   0.522 -0.5438  1.2204 -0.8363
   41MMA    H0D  603   0.304  -2.189   0.655  0.4263  1.1223 -0.8320
   41MMA    H0E  604   0.223  -2.347   0.642 -1.3069 -0.6718 -1.6072
   42MMA    H00  605  -0.129  -2.501   0.935 -1.3338  0.0881 -0.3727
   42MMA    C01  606  -0.126  -2.432   1.020 -0.3248  0.2592 -0.5382
   42MMA    H02  607  -0.223  -2.384   1.031 -0.1821  0.4766 -0.2568
   42MMA    H03  608  -0.107  -2.493   1.109 -0.8078 -0.2460 -0.7712
   42MMA    O04  609  -0.028  -2.332   1.009  0.0168  0.6755  0.1360
   42MMA    C05  610   0.098  -2.362   0.958  0.6922  0.7155 -0.1009
   42MMA    O06  611   0.127  -2.472   0.906 -0.3398 -0.8814  0.8332
   42MMA    C07  612   0.184  -2.244   0.955 -0.2470 -1.4419 -0.0071
   42MMA    C08  613   0.177  -2.157   1.056  0.0920  0.6267 -0.4252
   42MMA    H09  614   0.076  -2.147   1.093  0.2028  0.2550 -0.0111
   42MMA    H0A  615   0.230  -2.066   1.035  0.6281  1.0967  2.7467
   42MMA    C0B  616   0.332  -2.276   0.914  0.2027 -0.2938 -0.0104
   42MMA    H0C  617   0.341  -2.347   0.831 -1.9011 -1.0305  0.3567
   42MMA    H0D  618   0.388  -2.185   0.892  2.1945 -1.8545 -1.5784
   42MMA    H0E  619   0.394  -2.314   0.994  0.9015  1.2960  0.2129
   43MMA    H00  620   0.629  -2.133   1.319 -1.8694  1.0595 -1.1093
   43MMA    C01  621   0.622  -2.203   1.236 -0.3482  0.4952 -0.7742
   43MMA    H02  622   0.660  -2.157   1.145  2.4364  0.2006  0.1902
   43MMA    H03  623   0.677  -2.294   1.262 -2.4880 -0.5998  0.1496
   43MMA    O04  624   0.481  -2.234   1.221 -0.0163 -1.1019 -0.0236
   43MMA    C05  625   0.395  -2.136   1.178  0.2457  0.2956 -0.1953
   43MMA    O06  626   0.436  -2.030   1.133  0.0730  0.0223 -0.0486
   43MMA    C07  627   0.254  -2.178   1.202 -0.1079 -0.2778  0.5637
   43MMA    C08  628   0.181  -2.085   1.270  0.3798  0.4264  0.2081
   43MMA    H09  629   0.090  -2.134   1.301  0.1338  0.6239 -0.1984
   43MMA    H0A  630   0.181  -1.989   1.220  1.8477  0.5629  0.4606
   43MMA    C0B  631   0.235  -2.333   1.224 -0.4264 -0.3407 -0.1222
   43MMA    H0C  632   0.256  -2.366   1.326  1.5437 -0.8318 -0.6529
   43MMA    H0D  633   0.130  -2.353   1.202  0.1844 -2.2938 -1.4456
   43MMA    H0E  634   0.291  -2.389   1.149 -2.8860 -2.6078 -0.3176
   44MMA    H00  635   0.418  -1.751   1.244 -0.2925  0.7221 -0.2881
   44MMA    C01  636   0.337  -1.721   1.311 -0.0669  0.9808 -0.1333
   44MMA    H02  637   0.371  -1.669   1.401 -1.1002  2.1814 -0.4164
   44MMA    H03  638   0.272  -1.651   1.258 -1.7993  1.5217  2.5860
   44MMA    O04  639   0.246  -1.828   1.352 -0.3075  0.3589 -0.1787
   44MMA    C05  640   0.297  -1.937   1.402  0.4241 -0.5153 -1.0623
   44MMA    O06  641   0.419  -1.956   1.413 -0.6280  0.0453 -0.2048
   44MMA    C07  642   0.197  -2.047   1.423  0.1874  0.3193  0.2406
   44MMA    C08  643   0.084  -2.004   1.487  0.2995  0.4150  0.2120
   44MMA    H09  644   0.080  -2.053   1.584  0.9664  1.0676  0.5730
   44MMA    H0A  645   0.072  -1.898   1.497  2.9454  0.8988 -1.3283
   44MMA    C0B  646   0.260  -2.168   1.493  0.3003  0.9113 -0.2622
   44MMA    H0C  647   0.278  -2.140   1.597  0.2077 -0.1773  0.0592
   44MMA    H0D  648   0.184  -2.247   1.500  2.8459 -1.5868 -0.1400
   44MMA    H0E  649   0.355  -2.202   1.453 -0.2652  0.4218 -1.1949
   45MMA    H00  650  -0.145  -1.950   1.886 -0.0078  0.4970  0.7539
   45MMA    C01  651  -0.135  -1.887   1.798 -0.6864  0.3922  0.6012
   45MMA    H02  652  -0.236  -1.849   1.783 -0.0939  2.7569  2.4159
   45MMA    H03  653  -0.062  -1.807   1.813 -0.9256  0.5666  0.8361
   45MMA    O04  654  -0.095  -1.979   1.694 -0.2380 -0.5468 -0.3088
   45MMA    C05  655  -0.113  -1.935   1.561  0.2041  0.0805 -0.1228
   45MMA    O06  656  -0.136  -1.816   1.533  0.6130 -0.3401  0.0411
   45MMA    C07  657  -0.072  -2.040   1.460 -0.7656 -0.6314  0.2122
   45MMA    C08  658  -0.084  -2.173   1.485  0.4475 -1.0041 -0.1177
   45MMA    H09  659  -0.064  -2.207   1.586  0.5822  0.1037  0.2356
   45MMA    H0A  660  -0.047  -2.244   1.412 -4.0790 -1.5926 -1.9999
   45MMA    C0B  661  -0.096  -1.979   1.321 -0.1133 -0.6734 -0.1708
   45MMA    H0C  662  -0.032  -1.895   1.296 -0.4795 -0.2715  0.2438
   45MMA    H0D  663  -0.094  -2.058   1.245  1.3960 -2.4486  1.6749
   45MMA    H0E  664  -0.203  -1.955   1.321 -0.0199 -0.1635  1.7607
   46MMA    H00  665   0.059  -2.521   1.504 -0.4406  1.2103 -0.7855
   46MMA    C01  666  -0.038  -2.562   1.475 -0.2022  0.1900 -0.1523
   46MMA    H02  667  -0.024  -2.635   1.396 -2.0688 -1.3236  0.8695
   46MMA    H03  668  -0.082  -2.608   1.563  0.2284 -0.5530 -0.3217
   46MMA    O04  669  -0.128  -2.454   1.431 -0.0381  0.1690  0.6903
   46MMA    C05  670  -0.175  -2.369   1.522  0.0163 -0.3200  0.1224
   46MMA    O06  671  -0.166  -2.397   1.642  0.1999 -0.3298  0.0355
   46MMA    C07  672  -0.227  -2.244   1.471 -0.3898 -0.2546  0.0975
   46MMA    C08  673  -0.295  -2.161   1.553 -0.3004  0.0683 -0.4830
   46MMA    H09  674  -0.314  -2.065   1.508  0.7891  0.0233 -1.0705
   46MMA    H0A  675  -0.263  -2.162   1.656  0.8973  1.9754 -0.8092
   46MMA    C0B  676  -0.246  -2.243   1.317 -0.5339 -0.1663 -1.1240
   46MMA    H0C  677  -0.306  -2.327   1.281 -2.0523  0.4129  0.0100
   46MMA    H0D  678  -0.304  -2.155   1.291 -0.1977  0.7282  1.0436
   46MMA    H0E  679  -0.155  -2.257   1.259 -0.7361 -0.3106 -1.4120
   47MMA    H00  680  -0.583  -1.807   1.590  1.1772 -1.8275  2.6553
   47MMA    C01  681  -0.500  -1.832   1.523 -0.0916  0.2404  0.1912
   47MMA    H02  682  -0.511  -1.780   1.429  1.1483 -0.4202 -0.3332
   47MMA    H03  683  -0.409  -1.801   1.574  0.7393 -0.2294 -0.9879
   47MMA    O04  684  -0.513  -1.972   1.512  0.1846  0.0362 -0.2742
   47MMA    C05  685  -0.480  -2.057   1.617  0.2652 -0.8624 -0.0672
   47MMA    O06  686  -0.447  -2.009   1.724  0.7162 -0.6471  0.5385
   47MMA    C07  687  -0.450  -2.198   1.585  0.2591  0.5177 -0.3524
   47MMA    C08  688  -0.501  -2.252   1.470 -0.0440  0.3639  0.1329
   47MMA    H09  689  -0.448  -2.346   1.458  1.0978  1.2493 -1.9501
   47MMA    H0A  690  -0.496  -2.180   1.391 -3.9297  2.1287  1.3601
   47MMA    C0B  691  -0.436  -2.285   1.717 -0.1420  0.2050  0.5849
   47MMA    H0C  692  -0.377  -2.246   1.800  2.0023  0.0505 -0.7977
   47MMA    H0D  693  -0.540  -2.286   1.749 -0.3025  4.3861  0.5279
   47MMA    H0E  694  -0.413  -2.389   1.693  0.9656  0.4354  0.6005
   48MMA    H00  695  -0.709  -2.239   1.009 -2.6833 -0.6785  1.4708
   48MMA    C01  696  -0.664  -2.316   1.071 -0.3308 -0.5155  0.0194
   48MMA    H02  697  -0.731  -2.400   1.053  1.2067 -1.4302 -1.6774
   48MMA    H03  698  -0.559  -2.325   1.041 -0.4327 -0.4320 -0.3703
   48MMA    O04  699  -0.667  -2.271   1.209  0.0691  0.5045  0.4995
   48MMA    C05  700  -0.616  -2.350   1.306  0.5329 -0.9908 -0.2871
   48MMA    O06  701  -0.559  -2.451   1.280  0.7753 -0.1228 -0.3167
   48MMA    C07  702  -0.647  -2.304   1.444  0.3344 -0.7402 -0.5179
   48MMA    C08  703  -0.669  -2.399   1.538  0.2908 -0.3606  0.2094
   48MMA    H09  704  -0.599  -2.480   1.527 -0.4914 -0.8905 -0.8781
   48MMA    H0A  705  -0.692  -2.348   1.631  0.8066  0.0055  0.1427
   48MMA    C0B  706  -0.728  -2.171   1.451 -0.0691 -0.0376  0.0274
   48MMA    H0C  707  -0.823  -2.185   1.401 -0.7702  2.5895  0.5806
   48MMA    H0D  708  -0.749  -2.131   1.551 -0.1037 -0.2176  0.0930
   48MMA    H0E  709  -0.678  -2.090   1.398  0.2796 -0.9527 -1.0725
   49MMA    H00  710  -0.553  -2.661   1.849 -1.2389 -1.4938 -0.1556
   49MMA    C01  711  -0.642  -2.599   1.849  0.4103  0.9333  0.4812
   49MMA    H02  712  -0.721  -2.653   1.900  1.5781 -1.8618 -0.5588
   49MMA    H03  713  -0.626  -2.502   1.895 -0.5491  2.2900 -1.9176
   49MMA    O04  714  -0.676  -2.584   1.709  0.1570 -0.4239  0.0697
   49MMA    C05  715  -0.784  -2.515   1.680 -0.0949  0.2435  0.1616
   49MMA    O06  716  -0.857  -2.460   1.769  0.0118 -0.5382  0.3745
   49MMA    C07  717  -0.797  -2.492   1.532 -0.0092  0.0592  0.3494
   49MMA    C08  718  -0.771  -2.592   1.437  0.0955 -0.3615  0.4012
   49MMA    H09  719  -0.682  -2.649   1.460  0.6599  0.5591  0.5312
   49MMA    H0A  720  -0.790  -2.547   1.341 -3.7477  0.1752  1.3300
   49MMA    C0B  721  -0.915  -2.406   1.493  0.1248 -0.1750  0.6730
   49MMA    H0C  722  -0.920  -2.320   1.559  1.4144 -0.4421  1.1381
   49MMA    H0D  723  -0.917  -2.381   1.387 -1.4155  4.1136  1.6331
   49MMA    H0E  724  -1.008  -2.453   1.527  0.5384 -0.6036  1.2247
   50MMA    H00  725  -0.636  -2.736   1.088  0.2846  0.7329 -1.3345
   50MMA    C01  726  -0.740  -2.766   1.075  0.1956  0.1184  0.5710
   50MMA    H02  727  -0.762  -2.705   0.987  0.1286  0.4312  0.8064
   50MMA    H03  728  -0.761  -2.865   1.034  0.6763  0.9482 -1.7889
   50MMA    O04  729  -0.811  -2.725   1.182  0.4264 -0.6082  0.5031
   50MMA    C05  730  -0.780  -2.771   1.302  0.4667  0.1041  0.8942
   50MMA    O06  731  -0.680  -2.846   1.315 -0.5657 -0.3688  0.7643
   50MMA    C07  732  -0.868  -2.714   1.404 -0.1082 -0.0894 -0.4800
   50MMA    C08  733  -0.868  -2.779   1.530  0.3525  0.1518  0.7301
   50MMA    H09  734  -0.768  -2.811   1.557 -0.4387 -1.3210  2.0021
   50MMA    H0A  735  -0.931  -2.728   1.601  0.5804  2.0645 -0.3950
   50MMA    C0B  736  -1.003  -2.671   1.361 -0.5525 -0.0861  0.6261
   50MMA    H0C  737  -0.999  -2.583   1.298 -2.1103 -1.2909 -1.1944
   50MMA    H0D  738  -1.048  -2.747   1.297 -1.4123 -0.0781  1.2070
   50MMA    H0E  739  -1.074  -2.652   1.442  0.5951 -0.5402  1.7713
   51MMA    H00  740  -0.938  -2.788   1.930 -1.1830  2.3823  1.1075
   51MMA    C01  741  -1.027  -2.841   1.896  0.4444  0.2861  0.0209
   51MMA    H02  742  -1.041  -2.918   1.972 -0.0355  0.3243 -0.0250
   51MMA    H03  743  -1.108  -2.770   1.913  2.6737  2.3251  2.3816
   51MMA    O04  744  -1.021  -2.880   1.758 -0.5185 -0.4583  0.5827
   51MMA    C05  745  -0.903  -2.905   1.694 -0.4577  0.3455 -0.5237
   51MMA    O06  746  -0.797  -2.898   1.754  0.6615  0.2831 -0.1328
   51MMA    C07  747  -0.928  -2.922   1.555 -0.2033 -0.0995 -0.5065
   51MMA    C08  748  -0.843  -3.003   1.482  0.7507  0.6250  0.8825
   51MMA    H09  749  -0.739  -2.997   1.509  1.1078 -2.9844  0.4974
   51MMA    H0A  750  -0.879  -2.995   1.380  1.3741  0.2979  0.6367
   51MMA    C0B  751  -1.075  -2.919   1.519 -0.3763  0.3138  0.1088
   51MMA    H0C  752  -1.128  -2.831   1.556 -0.1827  1.1038 -1.4528
   51MMA    H0D  753  -1.086  -2.927   1.411  2.2349 -2.1001 -0.0462
   51MMA    H0E  754  -1.124  -3.006   1.563  0.9908 -0.4402  0.1833
   52MMA    H00  755  -1.174  -3.334   1.289  1.7025  0.6481 -1.0111
   52MMA    C01  756  -1.190  -3.246   1.351 -0.1205 -0.2302 -0.1955
   52MMA    H02  757  -1.217  -3.161   1.288  1.5472 -1.2019 -2.2991
   52MMA    H03  758  -1.274  -3.285   1.409 -1.5023  3.1119  0.1627
   52MMA    O04  759  -1.079  -3.225   1.435 -0.2131 -0.1425 -0.0731
   52MMA    C05  760  -0.957  -3.182   1.381 -0.6462  0.3278 -0.7019
   52MMA    O06  761  -0.948  -3.186   1.260 -0.0159 -0.3094  0.1803
   52MMA    C07  762  -0.854  -3.155   1.477 -0.2286  0.1880 -0.3526
   52MMA    C08  763  -0.733  -3.208   1.429  0.2268  0.2063  0.5602
   52MMA    H09  764  -0.702  -3.148   1.345 -0.6047  0.6944  0.5971
   52MMA    H0A  765  -0.762  -3.297   1.376  0.5096  0.2939  0.2563
   52MMA    C0B  766  -0.906  -3.204   1.617 -0.0626  0.2333  0.0009
   52MMA    H0C  767  -0.890  -3.311   1.622  1.4924  0.2234 -3.6438
   52MMA    H0D  768  -0.854  -3.160   1.702  0.5024  0.1884 -0.3206
   52MMA    H0E  769  -1.009  -3.177   1.642 -0.3930 -0.0071 -1.1147
   53MMA    H00  770  -0.570  -3.616   1.265  0.7415  0.2475  1.4783
   53MMA    C01  771  -0.535  -3.515   1.243 -0.1994  0.3107  0.2239
   53MMA    H02  772  -0.427  -3.519   1.234 -0.1303 -0.4555  1.3318
   53MMA    H03  773  -0.575  -3.476   1.150  1.4959  3.5015  0.7335
   53MMA    O04  774  -0.567  -3.440   1.366  0.5440 -0.3716 -0.3200
   53MMA    C05  775  -0.545  -3.305   1.371  0.5467  0.5485  0.4146
   53MMA    O06  776  -0.488  -3.243   1.287 -0.5333  0.0247 -0.4762
   53MMA    C07  777  -0.605  -3.256   1.500  0.6219 -0.6798 -0.3690
   53MMA    C08  778  -0.556  -3.139   1.551 -0.0855 -0.6117 -0.4386
   53MMA    H09  779  -0.540  -3.065   1.473  0.4955 -0.4586 -0.1758
   53MMA    H0A  780  -0.598  -3.115   1.647 -1.0264  0.4008 -1.0939
   53MMA    C0B  781  -0.639  -3.370   1.604 -0.1559  0.0191 -0.5802
   53MMA    H0C  782  -0.552  -3.431   1.632  0.0111  0.5086 -0.0143
   53MMA    H0D  783  -0.683  -3.334   1.697  1.3532  1.4578 -0.3935
   53MMA    H0E  784  -0.700  -3.443   1.552  0.9135 -1.2484 -0.1081
   54MMA    H00  785  -0.489  -2.729   1.600 -2.5096 -0.9528 -2.7668
   54MMA    C01  786  -0.396  -2.757   1.550 -0.9121 -0.0057 -0.3830
   54MMA    H02  787  -0.393  -2.709   1.453  1.4650  1.5406  0.4146
   54MMA    H03  788  -0.308  -2.722   1.604  0.1509 -1.7691 -0.9156
   54MMA    O04  789  -0.401  -2.901   1.530  0.3787 -0.0599 -0.0776
   54MMA    C05  790  -0.420  -2.979   1.640  0.4914  0.0916 -0.1984
   54MMA    O06  791  -0.440  -2.930   1.751  0.2691 -0.3296  0.0624
   54MMA    C07  792  -0.408  -3.123   1.607 -0.3557 -0.3441  0.1532
   54MMA    C08  793  -0.325  -3.158   1.513  0.0290 -0.0025 -0.1554
   54MMA    H09  794  -0.322  -3.093   1.427 -0.4316 -2.0099 -1.7101
   54MMA    H0A  795  -0.319  -3.265   1.501 -1.1993  0.1501 -2.3298
   54MMA    C0B  796  -0.409  -3.209   1.738 -0.3043  0.1001  0.0850
   54MMA    H0C  797  -0.338  -3.165   1.808 -0.6186  0.4987  0.1600
   54MMA    H0D  798  -0.502  -3.205   1.794  0.4457 -2.6721  1.6303
   54MMA    H0E  799  -0.390  -3.312   1.707 -0.8185  0.8091 -2.6593
   55MMA    H00  800  -0.124  -3.586   1.443 -1.7010  2.2340 -1.3914
   55MMA    C01  801  -0.093  -3.530   1.532 -0.1021 -0.7221 -0.0195
   55MMA    H02  802  -0.150  -3.541   1.624  1.1301 -1.9188  0.6158
   55MMA    H03  803   0.009  -3.558   1.556 -0.2482 -0.5819  0.7909
   55MMA    O04  804  -0.117  -3.394   1.500 -0.3583 -0.3369  0.1791
   55MMA    C05  805  -0.145  -3.295   1.590 -0.0431  0.6720  0.4628
   55MMA    O06  806  -0.150  -3.313   1.709 -0.2184  0.4317  0.2662
   55MMA    C07  807  -0.164  -3.160   1.536  0.6837  0.0563  0.3173
   55MMA    C08  808  -0.136  -3.054   1.625 -0.4093  0.0686  0.5013
   55MMA    H09  809  -0.156  -3.086   1.726 -1.6833  2.0595  0.8935
   55MMA    H0A  810  -0.168  -2.953   1.607  1.7717  0.5939 -0.5229
   55MMA    C0B  811  -0.120  -3.157   1.393 -0.5447  0.2429 -0.3822
   55MMA    H0C  812  -0.191  -3.207   1.327  1.0353 -0.8690 -1.2663
   55MMA    H0D  813  -0.110  -3.054   1.361 -0.4769 -0.3751 -2.4111
   55MMA    H0E  814  -0.021  -3.201   1.392  0.3462  2.2064 -0.4282
   56MMA    H00  815  -0.022  -2.598   1.802  1.4988 -0.6647 -2.0193
   56MMA    C01  816  -0.076  -2.692   1.814  0.0359  0.4219  0.2804
   56MMA    H02  817  -0.072  -2.721   1.919 -1.1494  3.4719  1.2056
   56MMA    H03  818  -0.181  -2.665   1.811 -0.2430 -0.6490 -0.0827
   56MMA    O04  819  -0.038  -2.792   1.720  0.1115 -0.6437 -0.0921
   56MMA    C05  820  -0.021  -2.918   1.759  0.3361  0.8154  0.5770
   56MMA    O06  821  -0.042  -2.955   1.868  0.2885 -0.2965  0.0210
   56MMA    C07  822   0.012  -3.011   1.651 -0.5940 -0.4975  0.7459
   56MMA    C08  823   0.087  -3.115   1.686 -0.1927 -0.9929  0.0775
   56MMA    H09  824   0.119  -3.174   1.600  0.3818 -0.2563 -0.2238
   56MMA    H0A  825   0.067  -3.180   1.769 -1.3850 -1.0431 -0.2483
   56MMA    C0B  826   0.043  -2.932   1.516  0.8413  0.0283 -0.0261
   56MMA    H0C  827   0.101  -2.988   1.442  0.7335 -0.8986  0.5898
   56MMA    H0D  828  -0.041  -2.889   1.462 -0.4366 -1.0185  1.0843
   56MMA    H0E  829   0.111  -2.850   1.539 -0.2248  1.4608 -1.8475
   57MMA    H00  830   0.320  -3.500   1.749  0.2914 -1.8289  1.1267
   57MMA    C01  831   0.354  -3.425   1.821 -0.5784 -0.0410 -0.2718
   57MMA    H02  832   0.334  -3.465   1.921 -0.4159 -2.5800 -1.2073
   57MMA    H03  833   0.461  -3.407   1.828 -1.1278  3.2083  0.2839
   57MMA    O04  834   0.276  -3.311   1.826  0.0490  0.2113  0.1038
   57MMA    C05  835   0.274  -3.232   1.718  0.1161 -0.0640 -0.5974
   57MMA    O06  836   0.307  -3.275   1.607  0.2179  0.0608  0.1171
   57MMA    C07  837   0.230  -3.095   1.751 -0.7650  0.0487 -0.3805
   57MMA    C08  838   0.284  -2.990   1.675 -1.1644 -0.5552  0.1074
   57MMA    H09  839   0.300  -3.021   1.573  2.2799 -1.3961  0.8517
   57MMA    H0A  840   0.235  -2.897   1.699 -1.4144 -1.0081  1.4289
   57MMA    C0B  841   0.205  -3.068   1.898 -0.1946 -0.1921  0.2035
   57MMA    H0C  842   0.119  -3.119   1.942 -0.4983 -0.7519 -1.0115
   57MMA    H0D  843   0.286  -3.114   1.957 -2.3060 -2.5375  1.3781
   57MMA    H0E  844   0.188  -2.965   1.927  1.2790  0.2802 -0.5691
   58MMA    H00  845   0.285  -2.525   1.615  0.1215  1.4699 -1.7148
   58MMA    C01  846   0.339  -2.599   1.555  0.0184 -0.0588  0.0272
   58MMA    H02  847   0.262  -2.642   1.491 -1.2697  1.1271  0.7431
   58MMA    H03  848   0.420  -2.541   1.510  1.4636 -2.1896 -0.2108
   58MMA    O04  849   0.388  -2.697   1.643 -0.0630  0.3950 -0.4799
   58MMA    C05  850   0.402  -2.824   1.601 -0.4378  0.4221  0.0714
   58MMA    O06  851   0.398  -2.843   1.479 -0.5537 -0.0632  0.2507
   58MMA    C07  852   0.424  -2.923   1.705  0.3858 -0.4402  0.0827
   58MMA    C08  853   0.515  -3.022   1.684 -0.0649 -0.3203 -0.3668
   58MMA    H09  854   0.523  -3.055   1.582  1.6487 -0.2620 -0.2645
   58MMA    H0A  855   0.523  -3.090   1.768  1.8490 -0.1461 -0.3808
   58MMA    C0B  856   0.410  -2.863   1.846 -0.2352 -0.4480 -0.2123
   58MMA    H0C  857   0.324  -2.798   1.860  0.8405  0.2467  3.7755
   58MMA    H0D  858   0.420  -2.940   1.923 -1.8413 -1.4803 -1.0026
   58MMA    H0E  859   0.500  -2.804   1.862 -0.6660 -0.5077  2.6407
   59MMA    H00  860   0.808  -3.294   1.969  0.0470  0.6812 -0.1769
   59MMA    C01  861   0.780  -3.189   1.982 -0.2683  0.6218 -0.3918
   59MMA    H02  862   0.689  -3.187   2.043 -0.1454  0.1820 -0.1861
   59MMA    H03  863   0.859  -3.137   2.035  0.5003  0.4564 -1.3607
   59MMA    O04  864   0.743  -3.141   1.855  0.1483 -0.4891 -0.1975
   59MMA    C05  865   0.706  -3.018   1.832  0.2509  0.2797  0.3125
   59MMA    O06  866   0.696  -2.931   1.913  0.5083 -0.3129  0.1299
   59MMA    C07  867   0.680  -3.000   1.687  0.8839 -0.0049  0.0964
   59MMA    C08  868   0.676  -2.874   1.640  0.0303 -0.3680 -0.1824
   59MMA    H09  869   0.641  -2.874   1.538  1.0116 -3.6702 -0.5860
   59MMA    H0A  870   0.644  -2.789   1.699  1.5109  1.7436 -2.3133
   59MMA    C0B  871   0.718  -3.117   1.596  0.5120  0.2258 -0.3190
   59MMA    H0C  872   0.670  -3.212   1.618 -1.3614  1.4650  1.0387
   59MMA    H0D  873   0.690  -3.103   1.492 -1.4391 -1.7343 -0.0902
   59MMA    H0E  874   0.825  -3.135   1.606  0.2300 -0.7822  1.0724
   60EH     H00  875   0.925  -2.877   1.771  0.3177 -1.1521 -1.8713
   60EH     C01  876   0.884  -2.785   1.729  0.7422  0.1633  0.5525
   60EH     H02  877   0.817  -2.744   1.804 -1.3643  0.1653 -1.2980
   60EH     H03  878   0.971  -2.719   1.724  1.2884 -0.5281  0.8405
   60EH     C04  879   0.808  -2.796   1.600  0.6084 -0.1205 -0.5449
   60EH     C05  880   0.859  -2.873   1.499  0.0343 -0.2247  0.1820
   60EH     H06  881   0.907  -2.958   1.546 -0.3266 -1.5425 -1.7574
   60EH     H07  882   0.793  -2.878   1.413  0.4328 -1.7344 -0.0566
   60EH     C08  883   0.726  -2.678   1.566  0.5579  0.4795 -0.2492
   60EH     O09  884   0.661  -2.671   1.461 -0.0504  0.4851  0.5653
   60EH     O0A  885   0.735  -2.578   1.655 -0.6733 -0.4178 -0.2609
   60EH     C0B  886   0.667  -2.454   1.647 -0.0195 -0.1635 -0.0455
   60EH     H0C  887   0.588  -2.457   1.722 -0.3041  1.1336 -0.2821
   60EH     H0D  888   0.628  -2.434   1.547  1.8359  3.2160 -0.1756
   60EH     C0E  889   0.767  -2.342   1.694 -0.6150  0.6674  0.1557
   60EH     H0F  890   0.783  -2.348   1.802  1.3797 -3.0379 -0.2771
   60EH     C0G  891   0.903  -2.357   1.626 -0.2294  0.0435  0.5188
   60EH     H0H  892   0.949  -2.456   1.636  0.8691  0.2889 -1.9259
   60EH     H0I  893   0.978  -2.285   1.659 -0.5748  1.2525 -1.2934
   60EH     C0J  894   0.904  -2.343   1.473  0.5281 -0.5105  0.0269
   60EH     H0K  895   0.892  -2.237   1.450  0.8689 -0.3027  0.7967
   60EH     H0M  896   1.003  -2.373   1.441  0.6431 -0.5456  0.4122
   60EH     H0N  897   0.838  -2.406   1.413 -0.3666 -0.1516  0.6247
   60EH     C0O  898   0.716  -2.195   1.676 -0.3117  0.3275  0.1169
   60EH     H0P  899   0.798  -2.125   1.695  0.8722 -0.4787 -1.8164
   60EH     H0Q  900   0.686  -2.181   1.572 -1.1858 -2.6249 -0.0776
   60EH     C0R  901   0.598  -2.157   1.767 -0.3615  0.7113 -0.6776
   60EH     H0S  902   0.618  -2.193   1.868 -0.2107 -3.3997 -2.0863
   60EH     H0T  903   0.508  -2.196   1.720 -0.1366 -0.2149 -0.3406
   60EH     C0U  904   0.576  -2.005   1.781 -0.8629 -0.8067  0.2000
   60EH     H0V  905   0.565  -1.961   1.682 -0.2221  2.3578  1.4624
   60EH     H0W  906   0.485  -1.988   1.839 -0.4598  1.0853  0.3120
   60EH     C0X  907   0.690  -1.918   1.837  0.0372 -0.4897 -0.1658
   60EH     H0Y  908   0.665  -1.812   1.838  1.5190 -0.1197 -0.9279
   60EH     H0Z  909   0.787  -1.913   1.788 -1.2292 -0.1825 -2.7256
   60EH     H10  910   0.706  -1.958   1.937 -1.7202 -2.3589 -0.5972
   61ST     H00  911   1.044  -2.625   1.328 -1.3704  1.1586 -1.6286
   61ST     C01  912   0.961  -2.677   1.375  0.3031 -0.3157 -0.2281
   61ST     H02  913   0.950  -2.609   1.460 -0.0539 -0.1370 -0.4186
   61ST     H03  914   0.877  -2.670   1.306 -2.8522 -0.8757  3.3496
   61ST     C04  915   0.992  -2.820   1.420 -0.2531 -0.2553  0.5549
   61ST     C05  916   0.996  -2.912   1.317  0.3615  0.2594 -0.2890
   61ST     H06  917   0.918  -2.898   1.243  1.2153  0.5006 -1.1459
   61ST     H07  918   1.011  -3.008   1.364 -1.5334  1.2708  2.5186
   61ST     C08  919   1.095  -2.834   1.523 -0.2453  0.1976  0.7593
   61ST     O09  920   1.125  -2.938   1.576  0.1493 -0.5958  0.2698
   61ST     O0A  921   1.151  -2.715   1.546  0.3684  0.0951 -0.1669
   61ST     C0B  922   1.264  -2.712   1.628  0.2492  0.0747 -0.5892
   61ST     H0C  923   1.237  -2.740   1.730 -0.5849 -0.6572 -1.0098
   61ST     H0D  924   1.336  -2.787   1.595  4.1884  2.8089  1.4049
   61ST     C0E  925   1.327  -2.569   1.641  0.3430  0.2740 -0.4409
   61ST     H0F  926   1.369  -2.535   1.546  0.1293 -1.3170 -1.1234
   61ST     H0G  927   1.420  -2.590   1.694 -0.3162  0.0658  0.6351
   61ST     C0H  928   1.240  -2.462   1.717 -0.1713  0.1637  0.0894
   61ST     H0I  929   1.156  -2.438   1.652  0.1223  2.3523  0.4733
   61ST     H0J  930   1.310  -2.379   1.724  0.0152 -0.0842  1.1973
   61ST     C0K  931   1.201  -2.511   1.857 -0.0835 -0.0895 -0.1042
   61ST     H0M  932   1.116  -2.576   1.832 -0.3067  1.0897 -2.5703
   61ST     H0N  933   1.276  -2.572   1.907  1.2307 -0.2321 -2.1846
   61ST     C0O  934   1.153  -2.399   1.942  0.0352 -0.3853 -0.1321
   61ST     H0P  935   1.076  -2.335   1.899  1.9707  2.2613  0.1818
   61ST     H0Q  936   1.235  -2.329   1.921  1.4159 -2.2925 -1.2535
   61ST     C0R  937   1.147  -2.432   2.091  0.2166  0.4057  0.4143
   61ST     H0S  938   1.125  -2.337   2.140  1.8231  0.9951  0.0339
   61ST     H0T  939   1.248  -2.458   2.123  0.2037 -1.6164 -1.1256
   61ST     C0U  940   1.033  -2.535   2.128  0.4152  0.5740  0.5305
   61ST     H0V  941   1.026  -2.566   2.232  0.2318  0.9440  0.6318
   61ST     H0W  942   1.057  -2.629   2.079  0.2514  0.6824  0.2397
   61ST     C0X  943   0.890  -2.493   2.084  0.0568 -0.7144 -0.4600
   61ST     H0Y  944   0.867  -2.389   2.107 -0.7973 -0.9864 -0.0421
   61ST     H0Z  945   0.890  -2.483   1.976  1.1327  3.0075 -0.1823
   61ST     C10  946   0.777  -2.584   2.131  0.3059  0.6154 -0.2604
   61ST     H11  947   0.810  -2.688   2.126 -0.5819  0.3019  0.2204
   61ST     H12  948   0.747  -2.558   2.233 -1.5976  1.1373 -0.9345
   61ST     C13  949   0.644  -2.565   2.054 -0.1532 -0.1543 -0.4059
   61ST     H14  950   0.661  -2.582   1.947 -3.1334 -3.0855 -0.5070
   61ST     H15  951   0.577  -2.647   2.081 -0.7844 -0.7392 -3.5051
   61ST     C16  952   0.583  -2.418   2.056 -0.0236 -0.0348 -0.3848
   61ST     H17  953   0.662  -2.350   2.023 -0.5217 -0.1966 -1.9589
   61ST     H18  954   0.511  -2.411   1.974  0.5398 -3.1435 -1.1858
   61ST     C19  955   0.512  -2.384   2.189 -0.3088  0.4462 -0.0004
   61ST     H1A  956   0.451  -2.466   2.227  0.0015 -0.5906 -1.6984
   61ST     H1B  957   0.601  -2.383   2.252 -0.7936 -1.4041  0.7472
   61ST     C1C  958   0.438  -2.251   2.195  0.1582 -0.3252 -0.4361
   61ST     H1D  959   0.465  -2.206   2.291 -0.1975 -1.9410  0.4564
   61ST     H1E  960   0.484  -2.181   2.127 -0.9114  2.5952  1.7602
   61ST     C1F  961   0.287  -2.257   2.160  0.0830  0.0491  0.3150
   61ST     H1G  962   0.246  -2.349   2.202  0.3294  0.1767  0.8314
   61ST     H1H  963   0.255  -2.164   2.205  1.1511  0.5568  0.0382
   61ST     C1I  964   0.256  -2.247   2.011 -0.3173  0.0256  0.1036
   61ST     H1J  965   0.323  -2.312   1.955  0.4561 -1.1917  2.3302
   61ST     H1K  966   0.280  -2.147   1.977  0.5525 -0.3227 -0.3064
   61ST     C1M  967   0.105  -2.282   1.986 -1.2489 -0.8583  0.4531
   61ST     H1N  968   0.070  -2.374   2.032 -0.5178 -1.1167  0.4944
   61ST     H1O  969   0.089  -2.294   1.878  1.1330  2.4680 -0.3528
   61ST     C1P  970   0.007  -2.165   2.014 -0.1333  0.1322  0.5515
   61ST     H1Q  971   0.016  -2.130   2.117 -2.9002 -0.2788  0.9768
   61ST     H1R  972   0.019  -2.080   1.947  1.4844  1.4633  2.4508
   61ST     C1S  973  -0.147  -2.210   2.010 -0.4430 -0.0876  0.3863
   61ST     H1T  974  -0.218  -2.128   2.023  0.0455  0.5082 -0.6315
   61ST     H1U  975  -0.169  -2.255   2.107  2.1782  0.6676  1.3860
   61ST     H1V  976  -0.173  -2.273   1.926 -1.0157 -0.1421  0.6018
   62ST     H00  977   1.052  -2.761   1.108  0.5381  3.8097  1.0386
   62ST     C01  978   1.138  -2.807   1.157 -0.1926  0.5494 -0.5965
   62ST     H02  979   1.212  -2.815   1.076  2.5282  0.9296  1.7663
   62ST     H03  980   1.200  -2.733   1.208  0.0668  0.4263 -0.7280
   62ST     C04  981   1.113  -2.947   1.214 -0.7163  0.1230  0.6312
   62ST     C05  982   1.217  -3.004   1.282  0.3231 -0.1606 -0.4354
   62ST     H06  983   1.256  -2.933   1.353 -1.0721  0.2254 -0.0253
   62ST     H07  984   1.198  -3.107   1.310  1.4556  0.1676  1.6497
   62ST     C08  985   1.027  -3.039   1.137 -0.2111  0.7049  0.0894
   62ST     O09  986   1.016  -3.161   1.149  0.6869 -0.3603 -0.0093
   62ST     O0A  987   0.969  -2.978   1.034  0.0120  0.2487 -0.9677
   62ST     C0B  988   0.915  -3.051   0.926  0.6276 -0.2153 -0.1427
   62ST     H0C  989   0.995  -3.111   0.881  1.0348 -0.6794  1.1760
   62ST     H0D  990   0.826  -3.103   0.962 -0.2272 -0.9674 -3.1852
   62ST     C0E  991   0.870  -2.955   0.819  0.3526  0.6919 -0.0565
   62ST     H0F  992   0.812  -2.872   0.860  1.1519  1.7366 -0.9875
   62ST     H0G  993   0.793  -3.001   0.757  1.0325 -0.6579  0.0966
   62ST     C0H  994   0.979  -2.909   0.728  1.0514  0.4093  0.2613
   62ST     H0I  995   1.052  -2.988   0.710 -0.7128 -2.1880  3.7871
   62ST     H0J  996   1.041  -2.845   0.791  1.3691  0.0687  0.2967
   62ST     C0K  997   0.930  -2.843   0.597 -0.1653  0.1856 -0.3346
   62ST     H0M  998   0.902  -2.923   0.529  1.7596 -1.3279  0.6059
   62ST     H0N  999   0.842  -2.780   0.604  0.1148  0.7349 -1.5366
   62ST     C0O 1000   1.044  -2.760   0.527 -0.1239  0.4861 -0.1007
   62ST     H0P 1001   1.132  -2.823   0.519  0.2448  1.1457 -1.4170
   62ST     H0Q 1002   1.073  -2.673   0.587 -1.3449  1.2889 -0.6456
   62ST     C0R 1003   1.009  -2.715   0.379 -0.7010  0.9591 -0.0703
   62ST     H0S 1004   1.010  -2.803   0.314  1.0643  0.2651  0.8516
   62ST     H0T 1005   1.083  -2.644   0.343 -0.4838 -1.2291 -4.2087
   62ST     C0U 1006   0.875  -2.649   0.361 -0.3546  0.4562  0.1814
   62ST     H0V 1007   0.802  -2.723   0.393  2.2567 -2.8096 -1.0654
   62ST     H0W 1008   0.856  -2.616   0.259 -1.9386  0.8523  0.5955
   62ST     C0X 1009   0.861  -2.515   0.442 -0.1494  0.1828  0.2265
   62ST     H0Y 1010   0.899  -2.524   0.544  0.7528  2.6382  0.1319
   62ST     H0Z 1011   0.916  -2.432   0.399 -0.4255  0.6434  0.7518
   62ST     C10 1012   0.709  -2.474   0.441  0.4096 -0.2357  0.2748
   62ST     H11 1013   0.664  -2.455   0.343  0.2493  1.0985  0.5999
   62ST     H12 1014   0.651  -2.555   0.485 -0.6257  0.0811 -0.4863
   62ST     C13 1015   0.680  -2.337   0.513  0.3854 -0.2486  0.0439
   62ST     H14 1016   0.752  -2.265   0.474 -0.0948  0.6560  0.8092
   62ST     H15 1017   0.581  -2.302   0.483 -0.1091 -2.4333 -1.0037
   62ST     C16 1018   0.695  -2.357   0.667 -0.3782  0.4521  0.0173
   62ST     H17 1019   0.629  -2.442   0.685  1.9664 -1.4000  0.0145
   62ST     H18 1020   0.799  -2.376   0.692 -0.7261 -1.3518  0.1674
   62ST     C19 1021   0.663  -2.249   0.758 -0.5759 -0.0858  0.2023
   62ST     H1A 1022   0.557  -2.227   0.743 -0.9151 -0.8368  1.4410
   62ST     H1B 1023   0.673  -2.272   0.864 -0.6096 -0.7234  0.0667
   62ST     C1C 1024   0.742  -2.117   0.749 -0.5143  0.2392  0.0150
   62ST     H1D 1025   0.848  -2.138   0.764 -0.7286 -1.2561 -0.5160
   62ST     H1E 1026   0.738  -2.081   0.646 -0.5331 -2.7195 -1.0606
   62ST     C1F 1027   0.696  -2.015   0.849  0.4829  0.6624 -0.6295
   62ST     H1G 1028   0.589  -2.000   0.831  0.3347 -0.1780 -0.4620
   62ST     H1H 1029   0.707  -2.053   0.950 -1.6145 -4.0176 -2.0089
   62ST     C1I 1030   0.762  -1.876   0.825  0.2915  0.6334 -0.5218
   62ST     H1J 1031   0.768  -1.861   0.717  0.8417  0.7363 -0.4756
   62ST     H1K 1032   0.866  -1.876   0.855  0.3794  0.4464 -0.8281
   62ST     C1M 1033   0.681  -1.769   0.899 -0.6466 -0.2055 -0.3358
   62ST     H1N 1034   0.682  -1.790   1.006 -1.9043 -0.3393 -0.3401
   62ST     H1O 1035   0.577  -1.785   0.873 -0.1812 -1.8841 -1.2108
   62ST     C1P 1036   0.733  -1.624   0.868  0.2261  0.6361  0.0787
   62ST     H1Q 1037   0.841  -1.630   0.858 -0.0122 -3.1089 -1.1682
   62ST     H1R 1038   0.702  -1.599   0.766  1.3997  0.7950 -0.2406
   62ST     C1S 1039   0.691  -1.502   0.957 -0.3910 -0.2202 -0.7838
   62ST     H1T 1040   0.717  -1.497   1.063  0.0014 -0.7701 -0.8566
   62ST     H1U 1041   0.582  -1.500   0.957 -0.4315  1.1612  3.1658
   62ST     H1V 1042   0.731  -1.409   0.915  0.0987 -0.2610 -0.4103
   63ST     H00 1043   1.411  -3.140   1.043  0.2079  2.3272  1.1446
   63ST     C01 1044   1.322  -3.103   1.093 -1.1181 -0.0963  0.6238
   63ST     H02 1045   1.272  -3.042   1.018 -2.1727 -0.4798  0.9987
   63ST     H03 1046   1.264  -3.194   1.110  0.3615 -0.7946  1.9981
   63ST     C04 1047   1.361  -3.040   1.226 -0.6150 -0.3299 -0.4998
   63ST     C05 1048   1.444  -3.124   1.305  0.9317 -0.3067  0.2355
   63ST     H06 1049   1.474  -3.210   1.246 -1.6801  0.1138 -1.8177
   63ST     H07 1050   1.532  -3.076   1.345  1.0672  0.2715 -0.7452
   63ST     C08 1051   1.420  -2.906   1.224  0.0811  0.5349  0.5931
   63ST     O09 1052   1.470  -2.847   1.320  0.7234  0.1416  0.2888
   63ST     O0A 1053   1.448  -2.866   1.100  0.4491  0.4598 -1.1536
   63ST     C0B 1054   1.533  -2.758   1.088  0.2386  0.2972  0.5276
   63ST     H0C 1055   1.637  -2.774   1.116  0.0113 -0.4510  0.9537
   63ST     H0D 1056   1.495  -2.679   1.152  0.6830 -0.2423  1.4541
   63ST     C0E 1057   1.533  -2.706   0.942  0.1976  0.3947  0.0203
   63ST     H0F 1058   1.611  -2.629   0.937  1.5066 -0.7503  1.8589
   63ST     H0G 1059   1.572  -2.790   0.885 -0.6400 -0.6482  0.9762
   63ST     C0H 1060   1.394  -2.667   0.894  0.0114 -0.1017  0.2273
   63ST     H0I 1061   1.322  -2.747   0.880  1.6681 -1.7237  0.7528
   63ST     H0J 1062   1.414  -2.614   0.800 -0.5882  1.5778  1.0263
   63ST     C0K 1063   1.328  -2.559   0.974  0.8960 -0.1300  0.1636
   63ST     H0M 1064   1.313  -2.604   1.072 -0.3428 -1.0357 -0.4202
   63ST     H0N 1065   1.373  -2.459   0.977 -1.3433  0.8845  1.3980
   63ST     C0O 1066   1.185  -2.541   0.911 -0.0816  0.1145 -0.2342
   63ST     H0P 1067   1.138  -2.639   0.917 -1.6904  1.0148  3.2116
   63ST     H0Q 1068   1.191  -2.528   0.803  0.5600 -2.0022 -0.4838
   63ST     C0R 1069   1.096  -2.435   0.981 -0.2098  0.1578 -0.6757
   63ST     H0S 1070   1.131  -2.338   0.946 -2.0974  0.3185 -2.2471
   63ST     H0T 1071   1.107  -2.440   1.089  2.0609  1.0482 -0.8512
   63ST     C0U 1072   0.952  -2.431   0.952 -0.0710 -0.2563  0.3382
   63ST     H0V 1073   0.943  -2.463   0.848 -0.6087  2.0219 -0.3299
   63ST     H0W 1074   0.908  -2.332   0.960 -1.1539 -0.8540  2.2873
   63ST     C0X 1075   0.878  -2.534   1.042  0.3730 -0.2179  0.8692
   63ST     H0Y 1076   0.906  -2.635   1.010 -2.4961 -1.0058  0.7547
   63ST     H0Z 1077   0.902  -2.515   1.147  0.9864 -1.1722  0.9120
   63ST     C10 1078   0.730  -2.523   1.028 -0.6328  0.2742 -0.3290
   63ST     H11 1079   0.699  -2.428   1.070 -0.6322 -0.0067  0.3178
   63ST     H12 1080   0.702  -2.534   0.923  3.4693 -0.6569 -1.3963
   63ST     C13 1081   0.641  -2.630   1.111  0.2829  0.0120  0.3372
   63ST     H14 1082   0.676  -2.731   1.091  2.4401  0.1890  2.9108
   63ST     H15 1083   0.650  -2.618   1.219 -1.2794  0.5344  0.4240
   63ST     C16 1084   0.489  -2.604   1.086  0.1235 -0.7362 -0.1107
   63ST     H17 1085   0.480  -2.497   1.104 -1.5339 -0.8608 -0.1682
   63ST     H18 1086   0.462  -2.614   0.981  0.2348 -0.2269 -0.1897
   63ST     C19 1087   0.395  -2.688   1.172 -0.2349  0.3202  0.6599
   63ST     H1A 1088   0.454  -2.778   1.191  0.2826  0.3320 -0.8569
   63ST     H1B 1089   0.395  -2.638   1.269  0.6363  1.3340  0.1525
   63ST     C1C 1090   0.258  -2.715   1.101  0.2135 -0.4385 -0.1074
   63ST     H1D 1091   0.193  -2.629   1.114  0.7215 -0.2243  1.0177
   63ST     H1E 1092   0.281  -2.724   0.994  0.0483  1.2454 -0.2994
   63ST     C1F 1093   0.195  -2.843   1.158  0.0354  0.0782  0.2572
   63ST     H1G 1094   0.272  -2.919   1.147  1.9742  1.7979  1.5478
   63ST     H1H 1095   0.186  -2.840   1.267  0.3843  1.8943  0.2644
   63ST     C1I 1096   0.075  -2.883   1.070 -0.4130 -0.5989  0.2829
   63ST     H1J 1097   0.036  -2.980   1.101  0.2541 -1.5098 -1.6524
   63ST     H1K 1098   0.108  -2.900   0.967  2.7927  0.6931  1.0486
   63ST     C1M 1099  -0.039  -2.782   1.065  0.8841 -0.6723 -0.3654
   63ST     H1N 1100  -0.015  -2.689   1.012  1.1885 -0.7903 -0.4372
   63ST     H1O 1101  -0.053  -2.746   1.167  1.1381  0.7488 -0.8130
   63ST     C1P 1102  -0.172  -2.829   1.017 -0.0812  0.0199  0.2324
   63ST     H1Q 1103  -0.250  -2.754   1.014  0.6125  0.7216 -0.3301
   63ST     H1R 1104  -0.160  -2.855   0.912 -2.4986  1.5561 -0.4416
   63ST     C1S 1105  -0.232  -2.942   1.083 -0.2109  0.4166 -0.3666
   63ST     H1T 1106  -0.261  -2.914   1.184  1.6968 -1.4597  0.7333
   63ST     H1U 1107  -0.166  -3.027   1.101 -1.2267  0.2499  2.8735
   63ST     H1V 1108  -0.324  -2.980   1.038 -0.2807  1.0907 -0.7900
   64ST     H00 1109   1.373  -2.999   1.507  0.6718 -1.1013 -1.1635
   64ST     C01 1110   1.402  -3.095   1.550  0.2073 -0.4486  0.6291
   64ST     H02 1111   1.490  -3.053   1.599  1.1191  0.7090 -1.9195
   64ST     H03 1112   1.322  -3.124   1.618 -0.9620 -3.8227 -2.0373
   64ST     C04 1113   1.417  -3.209   1.445 -0.2012 -0.0272  0.5002
   64ST     C05 1114   1.540  -3.271   1.453 -0.3001  0.2783  0.8341
   64ST     H06 1115   1.620  -3.199   1.466  0.6108 -0.3348 -1.2895
   64ST     H07 1116   1.551  -3.359   1.392  1.3877  0.8366  0.2829
   64ST     C08 1117   1.294  -3.280   1.415  0.6237  0.9969  0.3015
   64ST     O09 1118   1.188  -3.271   1.479 -0.2243  1.2030  0.6532
   64ST     O0A 1119   1.301  -3.362   1.301 -0.0385  0.0068  0.1870
   64ST     C0B 1120   1.189  -3.438   1.261  0.1467  0.3180  0.3194
   64ST     H0C 1121   1.175  -3.525   1.325 -0.3829  1.1617  1.3604
   64ST     H0D 1122   1.097  -3.381   1.271  0.1731  0.2496  0.9750
   64ST     C0E 1123   1.224  -3.496   1.120 -0.4123  0.6884  0.1444
   64ST     H0F 1124   1.323  -3.540   1.112 -0.2874  1.1261 -0.7717
   64ST     H0G 1125   1.229  -3.411   1.052 -1.4176  0.0170 -0.7914
   64ST     C0H 1126   1.121  -3.603   1.065  0.1620 -0.0949  0.4410
   64ST     H0I 1127   1.126  -3.692   1.128  0.7956 -0.6817 -0.4194
   64ST     H0J 1128   1.174  -3.625   0.972  0.6169  0.5214  0.5497
   64ST     C0K 1129   0.981  -3.554   1.027  0.0878 -0.4166  0.3193
   64ST     H0M 1130   0.992  -3.449   0.997  2.3784 -0.6635  0.2038
   64ST     H0N 1131   0.957  -3.601   0.932  0.2778 -2.8423  1.4527
   64ST     C0O 1132   0.868  -3.593   1.124 -0.0788  0.4665 -0.1931
   64ST     H0P 1133   0.884  -3.698   1.147  5.0265  0.9730 -0.8099
   64ST     H0Q 1134   0.772  -3.598   1.072 -0.0991 -0.5043 -0.0691
   64ST     C0R 1135   0.850  -3.497   1.244 -0.2414 -0.1567 -0.0289
   64ST     H0S 1136   0.846  -3.392   1.216 -2.2541  0.0166  0.8704
   64ST     H0T 1137   0.942  -3.505   1.302 -0.8861  0.0111  1.0184
   64ST     C0U 1138   0.724  -3.546   1.318  0.4497 -0.4385 -0.2832
   64ST     H0V 1139   0.758  -3.526   1.419 -0.4153 -1.3506  0.2010
   64ST     H0W 1140   0.694  -3.650   1.308 -2.1351  0.3189 -1.0221
   64ST     C0X 1141   0.599  -3.462   1.284  0.2744 -0.9629 -0.2318
   64ST     H0Y 1142   0.604  -3.433   1.179 -3.0322  1.1471  0.1009
   64ST     H0Z 1143   0.513  -3.525   1.307  0.0969 -1.0859 -1.2042
   64ST     C10 1144   0.591  -3.332   1.364  0.1257 -0.0858 -0.2155
   64ST     H11 1145   0.592  -3.359   1.469  0.3196  0.8884  0.0396
   64ST     H12 1146   0.675  -3.266   1.344  1.6575 -1.1775  2.3518
   64ST     C13 1147   0.460  -3.245   1.333 -0.9247  0.6954 -0.3071
   64ST     H14 1148   0.370  -3.302   1.352 -1.7453  2.1572  0.2080
   64ST     H15 1149   0.449  -3.151   1.387  1.2700  0.9693 -0.2628
   64ST     C16 1150   0.447  -3.191   1.184 -0.5572 -0.0293 -0.8634
   64ST     H17 1151   0.430  -3.278   1.122  1.4739 -0.6319 -0.5903
   64ST     H18 1152   0.359  -3.126   1.182 -0.7667 -0.2754  0.0757
   64ST     C19 1153   0.572  -3.100   1.144  0.1622 -0.2163 -0.2139
   64ST     H1A 1154   0.606  -3.048   1.234  0.4067 -1.3679  0.3724
   64ST     H1B 1155   0.657  -3.168   1.135 -1.7550 -2.6503 -0.5784
   64ST     C1C 1156   0.546  -3.019   1.011 -0.4345 -0.1823 -0.0334
   64ST     H1D 1157   0.465  -2.953   1.042 -1.6092 -0.9346 -1.4169
   64ST     H1E 1158   0.635  -2.963   0.981 -0.0574 -0.2613  0.9148
   64ST     C1F 1159   0.500  -3.108   0.895 -0.1032  0.1752 -0.0096
   64ST     H1G 1160   0.564  -3.195   0.885 -2.4100 -1.4541 -0.8264
   64ST     H1H 1161   0.400  -3.145   0.918 -0.5747  2.4273  1.8059
   64ST     C1I 1162   0.495  -3.022   0.761 -1.1872 -0.1621 -0.2076
   64ST     H1J 1163   0.500  -3.093   0.678 -2.1132  0.0701 -0.4615
   64ST     H1K 1164   0.589  -2.966   0.756 -2.6158  2.2054 -1.8635
   64ST     C1M 1165   0.371  -2.935   0.755 -0.6115  0.1570  0.3600
   64ST     H1N 1166   0.369  -2.880   0.849  0.2165  1.8290 -0.5776
   64ST     H1O 1167   0.288  -3.004   0.746  1.7939 -2.9907  1.5890
   64ST     C1P 1168   0.369  -2.830   0.642 -0.3334 -0.5717  0.1610
   64ST     H1Q 1169   0.459  -2.769   0.643 -0.2603 -0.6911  1.1226
   64ST     H1R 1170   0.377  -2.862   0.538  0.7731 -0.9447  0.3439
   64ST     C1S 1171   0.254  -2.736   0.652 -0.1611 -0.5747  0.1475
   64ST     H1T 1172   0.235  -2.674   0.564  1.3315 -0.2977  0.0075
   64ST     H1U 1173   0.274  -2.664   0.731  1.1449 -0.8514  0.0819
   64ST     H1V 1174   0.164  -2.789   0.682 -1.1523  0.1825 -1.4205
   65LA     H00 1175   1.416  -3.507   1.518 -2.8059  1.5325  0.5182
   65LA     C01 1176   1.456  -3.455   1.604 -0.1801 -0.3934  0.5338
   65LA     H02 1177   1.362  -3.416   1.644 -1.9673 -1.5797 -2.3838
   65LA     H03 1178   1.487  -3.540   1.664 -2.2874 -1.2722  0.4258
   65LA     C04 1179   1.570  -3.354   1.590  0.1256 -0.1186 -0.2226
   65LA     C05 1180   1.595  -3.258   1.682  0.2578 -0.3628  0.4419
   65LA     H06 1181   1.506  -3.218   1.728 -0.2365 -1.1898  0.2123
   65LA     H07 1182   1.678  -3.192   1.665  0.9925 -0.9074  1.7633
   65LA     C08 1183   1.681  -3.422   1.527 -0.4519  0.1040 -0.0855
   65LA     O09 1184   1.792  -3.373   1.518 -0.2528 -0.3816 -0.2739
   65LA     O0A 1185   1.660  -3.549   1.483  0.4023  0.3829  0.4215
   65LA     C0B 1186   1.761  -3.607   1.401  0.4229 -0.1052  0.8081
   65LA     H0C 1187   1.849  -3.645   1.453 -0.2338 -3.2182 -0.2339
   65LA     H0D 1188   1.802  -3.532   1.332  2.0037 -1.6989 -0.0348
   65LA     C0E 1189   1.694  -3.723   1.324  0.2815 -0.4567 -0.0258
   65LA     H0F 1190   1.772  -3.791   1.293  0.1028 -0.6700 -0.0074
   65LA     H0G 1191   1.635  -3.789   1.388  2.5493 -1.4659  1.0836
   65LA     C0H 1192   1.599  -3.681   1.207  0.0581  0.2374  0.0164
   65LA     H0I 1193   1.529  -3.607   1.245  0.7916  0.5938  0.6818
   65LA     H0J 1194   1.656  -3.624   1.133  1.1811 -0.2892  0.4690
   65LA     C0K 1195   1.513  -3.788   1.151 -0.4458  0.2166  0.5918
   65LA     H0M 1196   1.460  -3.754   1.062  1.1670  0.4653 -0.2946
   65LA     H0N 1197   1.570  -3.876   1.121 -0.0058  0.5953  0.3008
   65LA     C0O 1198   1.399  -3.837   1.240  0.7250 -0.2841  0.0183
   65LA     H0P 1199   1.430  -3.891   1.329 -0.5414  0.0751  0.6826
   65LA     H0Q 1200   1.348  -3.752   1.286  1.1812 -0.1956  0.3671
   65LA     C0R 1201   1.299  -3.921   1.160  0.2929  0.1228  0.1923
   65LA     H0S 1202   1.264  -3.856   1.080  0.8013  0.3637  0.1663
   65LA     H0T 1203   1.345  -4.002   1.103  0.8039  1.9739 -2.0909
   65LA     C0U 1204   1.169  -3.956   1.242  0.1565  0.0816  0.1604
   65LA     H0V 1205   1.197  -4.019   1.326  1.1511 -0.6021 -0.6817
   65LA     H0W 1206   1.123  -3.864   1.281 -0.7205  0.2631 -1.2532
   65LA     C0X 1207   1.068  -4.027   1.143  0.2516  0.5697 -0.8293
   65LA     H0Y 1208   1.033  -3.949   1.075  2.2255  0.7602 -1.6642
   65LA     H0Z 1209   1.114  -4.107   1.086  0.6409  0.4412 -0.3387
   65LA     C10 1210   0.946  -4.088   1.221 -0.1873  0.2368  0.4948
   65LA     H11 1211   0.969  -4.188   1.258 -0.0780 -1.1430 -3.1241
   65LA     H12 1212   0.878  -4.111   1.139 -0.5017 -0.5717  0.9823
   65LA     C13 1213   0.869  -4.005   1.328 -0.4118 -0.3178  0.1557
   65LA     H14 1214   0.847  -3.907   1.287  0.4192  0.7384  2.1350
   65LA     H15 1215   0.937  -3.974   1.408 -0.7484 -1.5539  0.9374
   65LA     C16 1216   0.750  -4.065   1.392  0.1300  0.0603 -0.1843
   65LA     H17 1217   0.674  -4.095   1.320 -1.4952  0.4972  1.3196
   65LA     H18 1218   0.710  -3.988   1.458  0.1280 -0.2589  0.1889
   65LA     C19 1219   0.779  -4.183   1.485  0.4943  0.5076  0.0812
   65LA     H1A 1220   0.822  -4.132   1.571  0.0113  0.2090  0.4961
   65LA     H1B 1221   0.836  -4.266   1.443  0.3393  1.0860 -1.2938
   65LA     H1C 1222   0.690  -4.239   1.514  1.2845 -1.2005 -0.6752
   66EH     H00 1223   1.563  -3.495   1.872  2.3194  0.2787  0.1384
   66EH     C01 1224   1.537  -3.390   1.883  0.4202 -0.1295 -0.2508
   66EH     H02 1225   1.521  -3.362   1.987  1.7558  2.2912 -0.6682
   66EH     H03 1226   1.441  -3.370   1.834  0.0924  1.1364  0.8664
   66EH     C04 1227   1.641  -3.296   1.831  0.6624 -0.3938 -0.3390
   66EH     C05 1228   1.768  -3.348   1.816 -0.6473 -0.1040 -0.2962
   66EH     H06 1229   1.767  -3.449   1.780 -1.9722  0.5494 -2.1418
   66EH     H07 1230   1.835  -3.272   1.779 -0.4115 -0.6098 -0.9074
   66EH     C08 1231   1.621  -3.153   1.870 -0.0038  0.5595  0.5592
   66EH     O09 1232   1.701  -3.065   1.838  0.3897 -0.5572  0.6304
   66EH     O0A 1233   1.502  -3.122   1.927  0.1158  0.3901  0.4251
   66EH     C0B 1234   1.474  -2.993   1.980 -0.9586 -0.5559 -0.3348
   66EH     H0C 1235   1.493  -2.921   1.900 -2.0816  0.3164  0.1687
   66EH     H0D 1236   1.547  -2.970   2.058 -1.3441 -2.1633  0.5185
   66EH     C0E 1237   1.332  -2.971   2.031 -0.8168  0.7044 -0.2097
   66EH     H0F 1238   1.313  -3.035   2.117  0.7299 -1.9403 -1.7775
   66EH     C0G 1239   1.311  -2.828   2.080  0.3650 -0.1407 -0.0430
   66EH     H0H 1240   1.204  -2.813   2.098  0.4883 -0.8494  1.3153
   66EH     H0I 1241   1.331  -2.752   2.004  0.9354 -0.9152 -0.6727
   66EH     C0J 1242   1.391  -2.790   2.205  0.3060  0.6624  0.5393
   66EH     H0K 1243   1.370  -2.858   2.288  1.1233  1.8457  1.7500
   66EH     H0M 1244   1.372  -2.687   2.234  0.9614  0.5281  1.5054
   66EH     H0N 1245   1.498  -2.797   2.187 -0.0698 -0.2500 -1.4284
   66EH     C0O 1246   1.223  -3.022   1.933  0.1060 -0.4924 -0.4353
   66EH     H0P 1247   1.127  -2.986   1.969  0.3340 -1.8929  1.7048
   66EH     H0Q 1248   1.230  -2.968   1.839  1.9832  0.2669  0.1022
   66EH     C0R 1249   1.208  -3.175   1.898 -0.3968  0.6871  0.2130
   66EH     H0S 1250   1.199  -3.232   1.990 -2.4800  1.4862  0.5200
   66EH     H0T 1251   1.297  -3.218   1.851 -0.2500  0.5602  0.6052
   66EH     C0U 1252   1.103  -3.205   1.791  0.4845  0.7310 -0.4177
   66EH     H0V 1253   1.014  -3.143   1.805 -0.0543 -0.3917  1.3419
   66EH     H0W 1254   1.137  -3.175   1.692  1.1296 -1.2193 -0.8206
   66EH     C0X 1255   1.055  -3.347   1.794  0.6159  0.1768 -0.5959
   66EH     H0Y 1256   0.999  -3.372   1.884 -1.0910  1.0552 -1.3797
   66EH     H0Z 1257   1.131  -3.418   1.764 -1.0161 -1.0001 -2.0119
   66EH     H10 1258   0.989  -3.351   1.707  0.7566 -4.1663 -0.5795
   67LA     H00 1259   1.692  -3.489   2.052 -0.6728  2.8140 -0.4063
   67LA     C01 1260   1.786  -3.509   2.001 -0.6886  0.0523  0.5949
   67LA     H02 1261   1.850  -3.542   2.082 -1.5822  1.1739  1.7685
   67LA     H03 1262   1.775  -3.602   1.944 -2.3971 -0.2166  1.3184
   67LA     C04 1263   1.852  -3.380   1.950  1.3380  0.0885 -0.8934
   67LA     C05 1264   1.839  -3.267   2.019 -0.3218  0.7440  0.6095
   67LA     H06 1265   1.867  -3.176   1.968 -1.2538  0.3942 -0.5411
   67LA     H07 1266   1.740  -3.256   2.061 -1.0920  1.2581 -1.3025
   67LA     C08 1267   1.971  -3.405   1.871 -0.1405 -0.4418 -0.5522
   67LA     O09 1268   2.060  -3.319   1.844  0.2205  0.5184 -0.8428
   67LA     O0A 1269   1.982  -3.539   1.831 -0.5337 -0.2460 -0.0450
   67LA     C0B 1270   2.106  -3.593   1.793  0.0106  0.4313 -0.0096
   67LA     H0C 1271   2.154  -3.658   1.866  2.1075  2.0515  0.0997
   67LA     H0D 1272   2.176  -3.512   1.774  0.5071  0.0179  0.0384
   67LA     C0E 1273   2.067  -3.671   1.670  0.2947  0.5016 -0.2831
   67LA     H0F 1274   2.036  -3.600   1.593 -0.7965 -0.1688 -0.4596
   67LA     H0G 1275   2.159  -3.721   1.640  0.1024  0.2502 -0.4516
   67LA     C0H 1276   1.959  -3.771   1.696  0.4868  0.6902  0.0870
   67LA     H0I 1277   1.961  -3.822   1.792 -1.4536  1.9122  0.8053
   67LA     H0J 1278   1.869  -3.710   1.691 -0.3754 -0.5722  0.1074
   67LA     C0K 1279   1.968  -3.879   1.586  0.3840  0.3815 -0.0966
   67LA     H0M 1280   1.993  -3.839   1.487  3.4992 -0.6688  0.2134
   67LA     H0N 1281   2.058  -3.939   1.599  0.4619  0.5805  0.2818
   67LA     C0O 1282   1.861  -3.988   1.583 -1.0705 -0.4386  0.2125
   67LA     H0P 1283   1.868  -4.043   1.489  1.0001  0.5951 -0.2587
   67LA     H0Q 1284   1.892  -4.068   1.651  1.7362 -0.1570 -0.6821
   67LA     C0R 1285   1.715  -3.935   1.619  0.4803  0.4916 -0.6926
   67LA     H0S 1286   1.704  -3.923   1.727  1.0412  1.5224 -0.7430
   67LA     H0T 1287   1.699  -3.837   1.573  1.9965  1.0288 -0.0976
   67LA     C0U 1288   1.596  -4.011   1.560 -0.2073 -0.4093 -1.2337
   67LA     H0V 1289   1.504  -3.961   1.592 -1.0142 -4.2582  2.9791
   67LA     H0W 1290   1.586  -4.010   1.452  1.5584  0.7379 -1.4121
   67LA     C0X 1291   1.572  -4.158   1.609  0.0855 -0.0759  0.2565
   67LA     H0Y 1292   1.630  -4.237   1.561 -0.1491  1.6506 -2.9671
   67LA     H0Z 1293   1.601  -4.163   1.714  1.8243 -0.5793 -0.2163
   67LA     C10 1294   1.430  -4.209   1.606 -0.4804 -0.2850 -0.0366
   67LA     H11 1295   1.361  -4.135   1.646 -0.7512  0.1543 -1.3137
   67LA     H12 1296   1.434  -4.304   1.660 -0.7837 -0.3405 -0.1104
   67LA     C13 1297   1.379  -4.232   1.461 -0.4437 -0.0439  0.8243
   67LA     H14 1298   1.381  -4.138   1.406 -1.5175 -0.2512  0.4222
   67LA     H15 1299   1.276  -4.266   1.466 -0.5584 -0.1762 -1.8730
   67LA     C16 1300   1.456  -4.325   1.358  0.0716  0.2093 -0.1587
   67LA     H17 1301   1.452  -4.428   1.393  2.4448  0.3156  0.4717
   67LA     H18 1302   1.562  -4.306   1.347  0.2615 -1.3118 -1.2017
   67LA     C19 1303   1.404  -4.306   1.223  0.8815  0.6121 -0.1210
   67LA     H1A 1304   1.302  -4.343   1.215  0.7440  0.5612  1.6222
   67LA     H1B 1305   1.468  -4.373   1.164  2.1185 -0.3872  2.2936
   67LA     H1C 1306   1.416  -4.208   1.176 -0.7102  0.5734 -0.6315
   68ST     H00 1307   1.852  -3.307   2.351  1.2782  1.4957  0.4600
   68ST     C01 1308   1.856  -3.350   2.251  0.1736  1.0099  0.6085
   68ST     H02 1309   1.913  -3.443   2.256 -0.2380  0.5577 -2.3612
   68ST     H03 1310   1.751  -3.374   2.236  0.0243  1.7359  0.5031
   68ST     C04 1311   1.914  -3.240   2.156  0.3207  0.6448  0.0823
   68ST     C05 1312   2.049  -3.242   2.124 -0.0807  0.4682  0.4334
   68ST     H06 1313   2.083  -3.344   2.112 -0.4432  0.0652  2.6378
   68ST     H07 1314   2.062  -3.169   2.045 -0.5590  1.1268  0.9637
   68ST     C08 1315   1.844  -3.110   2.170 -0.5043 -0.3583  0.5141
   68ST     O09 1316   1.745  -3.099   2.243  0.0473  0.0975  0.3262
   68ST     O0A 1317   1.900  -3.005   2.114 -0.4100  0.1377  0.3450
   68ST     C0B 1318   1.843  -2.876   2.123 -0.1925  0.0197 -0.5832
   68ST     H0C 1319   1.741  -2.890   2.086  0.2198 -1.1848 -1.2751
   68ST     H0D 1320   1.855  -2.833   2.223 -2.2819 -2.1618  0.6567
   68ST     C0E 1321   1.909  -2.788   2.013 -0.0000 -0.5715 -0.1991
   68ST     H0F 1322   1.866  -2.688   2.021  0.1064 -0.5706  0.3881
   68ST     H0G 1323   1.874  -2.823   1.916 -1.8539 -0.4645  0.4165
   68ST     C0H 1324   2.059  -2.784   2.038 -1.0731  0.3536 -0.5717
   68ST     H0I 1325   2.091  -2.707   2.108  2.1078  0.2680 -1.8444
   68ST     H0J 1326   2.096  -2.871   2.092 -0.3629  0.3715 -1.0235
   68ST     C0K 1327   2.146  -2.769   1.905  0.1618 -0.2463  0.1806
   68ST     H0M 1328   2.136  -2.676   1.848 -0.7729 -1.0149 -0.9179
   68ST     H0N 1329   2.246  -2.761   1.948  0.5049  0.6241 -0.7589
   68ST     C0O 1330   2.154  -2.887   1.805  0.2898 -0.1190 -0.2803
   68ST     H0P 1331   2.237  -2.885   1.736  0.8534 -1.3941  0.3404
   68ST     H0Q 1332   2.177  -2.981   1.857 -0.6087 -0.4794 -0.5148
   68ST     C0R 1333   2.030  -2.907   1.715 -0.2748 -0.8414 -0.6195
   68ST     H0S 1334   2.003  -2.816   1.662  1.0136 -0.7937 -1.2110
   68ST     H0T 1335   1.944  -2.945   1.770 -2.4221  2.5068 -1.4765
   68ST     C0U 1336   2.056  -3.018   1.600  0.1716 -0.9431 -0.7016
   68ST     H0V 1337   2.045  -3.113   1.651 -1.7667 -0.8605 -0.9323
   68ST     H0W 1338   2.161  -3.022   1.569  1.0211  0.1521  1.8600
   68ST     C0X 1339   1.953  -3.006   1.489  0.0056  0.3844  0.4895
   68ST     H0Y 1340   1.856  -3.004   1.540  0.5922 -2.3901  1.7927
   68ST     H0Z 1341   1.952  -2.905   1.449 -1.7324  1.0136  2.0607
   68ST     C10 1342   1.969  -3.129   1.395  0.1691  0.5279  0.2025
   68ST     H11 1343   2.069  -3.134   1.351  0.4817 -1.0678  1.0515
   68ST     H12 1344   1.971  -3.227   1.442 -0.7916 -1.0347 -2.8830
   68ST     C13 1345   1.865  -3.120   1.287 -0.2582  1.1176 -0.6493
   68ST     H14 1346   1.768  -3.097   1.329 -0.7166 -3.5250  1.0685
   68ST     H15 1347   1.874  -3.034   1.220 -0.0802  2.6412  1.2754
   68ST     C16 1348   1.861  -3.245   1.196 -0.2793  0.7733  0.4676
   68ST     H17 1349   1.954  -3.234   1.139 -0.9479  1.3576 -0.5118
   68ST     H18 1350   1.868  -3.338   1.254 -0.9579  1.5809  1.8653
   68ST     C19 1351   1.747  -3.244   1.096 -0.1170 -0.8402 -0.0215
   68ST     H1A 1352   1.655  -3.283   1.139 -0.0951  1.2751  2.0732
   68ST     H1B 1353   1.718  -3.144   1.063  2.4513 -0.0135  0.1108
   68ST     C1C 1354   1.790  -3.334   0.977  0.3660 -0.3432 -0.2046
   68ST     H1D 1355   1.894  -3.320   0.948 -0.1021  3.7657 -0.2193
   68ST     H1E 1356   1.799  -3.427   1.031 -0.4015  0.6858  1.7469
   68ST     C1F 1357   1.680  -3.330   0.870  0.4930  0.6170  0.7758
   68ST     H1G 1358   1.708  -3.405   0.796 -0.7043  0.4393  0.5047
   68ST     H1H 1359   1.583  -3.353   0.915 -1.3132  0.5383 -2.9958
   68ST     C1I 1360   1.671  -3.186   0.801  0.2403  0.2856 -0.0449
   68ST     H1J 1361   1.766  -3.162   0.754 -0.6722  1.7654 -1.1763
   68ST     H1K 1362   1.661  -3.104   0.872  3.0381 -0.0068  0.7257
   68ST     C1M 1363   1.555  -3.182   0.705  0.8758 -0.5527  0.2928
   68ST     H1N 1364   1.485  -3.265   0.720  1.2439 -0.6216  1.7583
   68ST     H1O 1365   1.586  -3.195   0.602 -2.0122  0.7534 -0.8083
   68ST     C1P 1366   1.468  -3.050   0.703 -0.4439  0.1896 -0.2331
   68ST     H1Q 1367   1.438  -3.028   0.805 -3.0094 -2.3676 -0.3601
   68ST     H1R 1368   1.523  -2.968   0.658 -1.1227  0.8629  0.1572
   68ST     C1S 1369   1.333  -3.067   0.623  0.3888 -0.7558 -0.3977
   68ST     H1T 1370   1.269  -3.140   0.673 -0.1202 -1.0314 -1.4309
   68ST     H1U 1371   1.354  -3.096   0.520  2.8863 -1.5640  0.3030
   68ST     H1V 1372   1.271  -2.978   0.616  0.6613 -0.6574 -1.8367
   69EH     H00 1373   2.235  -3.045   2.077 -0.8254  0.0922  0.4685
   69EH     C01 1374   2.252  -3.148   2.108 -1.0882 -0.1732 -0.2521
   69EH     H02 1375   2.255  -3.198   2.012  0.0397  1.3184 -1.0100
   69EH     H03 1376   2.354  -3.177   2.129 -0.9451  1.7946  2.0704
   69EH     C04 1377   2.158  -3.198   2.224  0.3858  0.0502  0.8793
   69EH     C05 1378   2.104  -3.109   2.311 -0.0173 -0.3047  0.6396
   69EH     H06 1379   2.054  -3.148   2.399  2.9026 -0.4610  2.2778
   69EH     H07 1380   2.064  -3.021   2.264  0.4657 -0.7893 -0.7099
   69EH     C08 1381   2.189  -3.327   2.284 -0.3847 -0.6241 -0.0058
   69EH     O09 1382   2.123  -3.382   2.381 -0.3505 -0.6606  0.0377
   69EH     O0A 1383   2.289  -3.388   2.224 -0.1175  0.0360 -0.3286
   69EH     C0B 1384   2.325  -3.524   2.251 -0.0897 -0.5323 -0.0668
   69EH     H0C 1385   2.235  -3.585   2.241  0.0018 -0.5919 -0.5198
   69EH     H0D 1386   2.356  -3.544   2.354 -0.1617  2.4554  0.5808
   69EH     C0E 1387   2.448  -3.554   2.165 -0.3340  0.7885  0.3037
   69EH     H0F 1388   2.516  -3.478   2.205  0.6198  0.5981 -0.9378
   69EH     C0G 1389   2.509  -3.694   2.199 -0.1316  0.2123  0.0302
   69EH     H0H 1390   2.537  -3.693   2.304  0.4745 -0.3962 -0.1187
   69EH     H0I 1391   2.597  -3.709   2.136  0.9083 -0.9744  1.7199
   69EH     C0J 1392   2.420  -3.807   2.173 -0.2919  0.1407  0.1855
   69EH     H0K 1393   2.422  -3.828   2.066 -0.4949  1.3328 -0.0600
   69EH     H0M 1394   2.466  -3.896   2.215  1.6862  0.6707 -0.7882
   69EH     H0N 1395   2.319  -3.787   2.210  0.6685  0.8281  2.4854
   69EH     C0O 1396   2.438  -3.529   2.011 -0.8975  0.0025 -0.0799
   69EH     H0P 1397   2.371  -3.444   2.001 -0.0236  0.5837 -1.2337
   69EH     H0Q 1398   2.394  -3.612   1.956  0.9478 -1.1977  0.1981
   69EH     C0R 1399   2.567  -3.464   1.960 -0.0383 -0.5583  0.5061
   69EH     H0S 1400   2.644  -3.541   1.965  0.5368 -0.1317 -1.4545
   69EH     H0T 1401   2.582  -3.377   2.023 -0.1817  0.3991 -0.7560
   69EH     C0U 1402   2.577  -3.422   1.811 -0.2416 -0.2453 -0.2928
   69EH     H0V 1403   2.675  -3.378   1.788  0.0179 -1.0357 -0.7123
   69EH     H0W 1404   2.566  -3.512   1.751 -0.8972  0.7832 -1.7403
   69EH     C0X 1405   2.468  -3.311   1.781  0.2241  0.3300 -0.8886
   69EH     H0Y 1406   2.367  -3.340   1.809  0.9582  0.7231  2.3060
   69EH     H0Z 1407   2.460  -3.286   1.675 -1.3599  1.3567 -0.5371
   69EH     H10 1408   2.487  -3.220   1.838  1.1518  0.4175 -1.3242
   70LA     H00 1409   2.238  -3.087   2.629  0.9998 -0.4715 -0.6487
   70LA     C01 1410   2.229  -3.128   2.528 -0.4398  0.2140 -0.8233
   70LA     H02 1411   2.157  -3.209   2.539 -0.3806  0.1601 -0.8243
   70LA     H03 1412   2.321  -3.187   2.524 -1.8571 -2.0080 -1.1082
   70LA     C04 1413   2.189  -3.024   2.419 -0.3019  0.5364 -0.5216
   70LA     C05 1414   2.289  -2.974   2.347 -0.2052 -0.8156 -0.3914
   70LA     H06 1415   2.257  -2.910   2.266  0.9076  0.6952  0.3388
   70LA     H07 1416   2.360  -3.054   2.328  1.2701  0.3581  0.0602
   70LA     C08 1417   2.079  -2.938   2.458  0.2065 -0.4413 -0.0207
   70LA     O09 1418   2.051  -2.827   2.404  0.1956 -0.5524 -0.5034
   70LA     O0A 1419   2.007  -2.979   2.571 -0.7908  0.0890 -0.6700
   70LA     C0B 1420   1.903  -2.897   2.613  0.0936 -0.7646  0.0320
   70LA     H0C 1421   1.928  -2.791   2.602  0.5942 -1.1312 -2.5149
   70LA     H0D 1422   1.816  -2.914   2.550  0.6489  1.4960 -1.4063
   70LA     C0E 1423   1.858  -2.929   2.755 -0.0249  0.1628  0.1730
   70LA     H0F 1424   1.759  -2.884   2.756 -1.0250 -2.0385  0.8219
   70LA     H0G 1425   1.841  -3.032   2.784  0.6295  0.2549  0.9200
   70LA     C0H 1426   1.968  -2.875   2.857  0.0588 -0.1624 -0.0873
   70LA     H0I 1427   2.054  -2.939   2.840  1.3681  1.6780 -0.6456
   70LA     H0J 1428   2.009  -2.776   2.836 -1.5028  0.2122 -1.4448
   70LA     C0K 1429   1.923  -2.891   3.003 -0.1168 -0.3169 -0.4831
   70LA     H0M 1430   1.895  -2.996   3.012  0.7954 -0.4631  0.8050
   70LA     H0N 1431   2.005  -2.869   3.071  1.6623 -0.2583 -2.6104
   70LA     C0O 1432   1.807  -2.796   3.044 -0.1615 -0.0394 -0.2680
   70LA     H0P 1433   1.720  -2.843   3.000  0.3587  0.3258 -1.6951
   70LA     H0Q 1434   1.782  -2.811   3.149 -1.3726  3.7969  0.0580
   70LA     C0R 1435   1.819  -2.651   3.001  0.4152 -0.1172  0.3759
   70LA     H0S 1436   1.908  -2.609   3.048  0.2159 -0.3273  0.9449
   70LA     H0T 1437   1.831  -2.643   2.893 -0.1073 -2.0730  0.1592
   70LA     C0U 1438   1.700  -2.560   3.057 -0.0173  0.1288 -0.3750
   70LA     H0V 1439   1.615  -2.591   2.997 -0.1734  0.4758 -0.3303
   70LA     H0W 1440   1.672  -2.573   3.162 -1.5408 -1.0931 -0.9232
   70LA     C0X 1441   1.717  -2.409   3.035 -0.2179  0.7083 -0.1966
   70LA     H0Y 1442   1.666  -2.338   3.099  0.5282  0.7821  0.3303
   70LA     H0Z 1443   1.811  -2.386   3.086 -0.9692  2.0271  0.6148
   70LA     C10 1444   1.730  -2.362   2.891 -0.0374  0.5741 -0.3043
   70LA     H11 1445   1.639  -2.385   2.836 -1.1238 -0.5071  1.8397
   70LA     H12 1446   1.820  -2.393   2.838 -0.0333  1.4408 -0.8077
   70LA     C13 1447   1.743  -2.208   2.884  0.7233  0.6091 -0.5484
   70LA     H14 1448   1.803  -2.179   2.971  0.9733 -0.7944 -0.2452
   70LA     H15 1449   1.648  -2.164   2.913  0.7982  0.5092 -0.1495
   70LA     C16 1450   1.793  -2.146   2.750 -0.0841  0.1216 -0.4164
   70LA     H17 1451   1.723  -2.179   2.674  0.2869  0.5225 -0.9345
   70LA     H18 1452   1.892  -2.176   2.717 -0.4342 -1.7769  0.2014
   70LA     C19 1453   1.808  -1.991   2.754  0.1810 -0.3100 -0.2571
   70LA     H1A 1454   1.719  -1.932   2.775 -0.9196 -2.4777  1.2959
   70LA     H1B 1455   1.825  -1.955   2.652  1.1406 -1.6404 -0.5794
   70LA     H1C 1456   1.894  -1.955   2.812 -1.2965 -1.0257  2.4688
   71LA     H00 1457   2.456  -2.807   2.607 -1.8216  1.8771  0.1870
   71LA     C01 1458   2.382  -2.870   2.559  0.3455  0.0179 -0.8238
   71LA     H02 1459   2.281  -2.849   2.595  0.1701  0.4462 -1.5461
   71LA     H03 1460   2.405  -2.967   2.604 -2.6382  0.1184  1.0708
   71LA     C04 1461   2.396  -2.874   2.403  0.3269  0.0270 -0.0837
   71LA     C05 1462   2.357  -2.766   2.332 -0.1622 -0.4987 -0.9150
   71LA     H06 1463   2.386  -2.766   2.228  1.5370 -1.9468 -0.4636
   71LA     H07 1464   2.258  -2.728   2.354  2.3347  5.3450  1.0981
   71LA     C08 1465   2.518  -2.951   2.364 -0.2466  0.3015  0.1226
   71LA     O09 1466   2.589  -3.016   2.445 -0.1492 -0.2065 -0.6975
   71LA     O0A 1467   2.546  -2.943   2.233  0.4759  0.1466 -0.0825
   71LA     C0B 1468   2.634  -3.033   2.174  0.7532  0.2157  0.6729
   71LA     H0C 1469   2.613  -3.136   2.203  1.9177  0.8688  4.0222
   71LA     H0D 1470   2.738  -3.016   2.203  1.4346 -1.2671 -0.8075
   71LA     C0E 1471   2.615  -3.001   2.027 -1.0665 -0.3367  0.4024
   71LA     H0F 1472   2.670  -3.077   1.973 -1.1349 -0.0265 -0.1091
   71LA     H0G 1473   2.512  -3.025   2.002 -1.3769  0.8901  0.4630
   71LA     C0H 1474   2.646  -2.856   1.982  0.5625 -0.2570 -0.1130
   71LA     H0I 1475   2.586  -2.791   2.046  1.4163  0.7356 -0.3196
   71LA     H0J 1476   2.751  -2.833   1.998  1.3080 -1.7190 -2.7433
   71LA     C0K 1477   2.602  -2.826   1.840  0.9470  0.1021  0.5184
   71LA     H0M 1478   2.652  -2.896   1.774  0.7916 -0.6350  1.1689
   71LA     H0N 1479   2.494  -2.841   1.834  0.9404  0.3327  0.0367
   71LA     C0O 1480   2.640  -2.681   1.802  0.3992 -0.3122  0.1706
   71LA     H0P 1481   2.567  -2.620   1.855  1.3799  0.9494  0.0799
   71LA     H0Q 1482   2.728  -2.645   1.856 -0.6481 -0.7401  2.2366
   71LA     C0R 1483   2.638  -2.670   1.646  0.4197 -1.4264  0.4852
   71LA     H0S 1484   2.673  -2.760   1.597 -1.8907 -4.1991  3.7112
   71LA     H0T 1485   2.537  -2.662   1.606  0.9891 -0.7645 -0.8670
   71LA     C0U 1486   2.708  -2.534   1.602  0.3748 -0.5553  0.3160
   71LA     H0V 1487   2.692  -2.497   1.500  0.6683 -0.3472  0.3430
   71LA     H0W 1488   2.683  -2.448   1.665 -4.5403 -1.4044 -0.2932
   71LA     C0X 1489   2.861  -2.548   1.592  1.3304  0.1022  0.5366
   71LA     H0Y 1490   2.911  -2.570   1.686  0.6310  2.1890  1.4365
   71LA     H0Z 1491   2.887  -2.637   1.535 -1.6666 -0.5017 -0.0005
   71LA     C10 1492   2.931  -2.421   1.542 -0.2764 -0.1256  0.2783
   71LA     H11 1493   2.915  -2.331   1.602  2.1072  1.2730 -1.0722
   71LA     H12 1494   2.910  -2.407   1.436  1.7052 -0.4565 -0.1742
   71LA     C13 1495   3.084  -2.441   1.551 -0.4472 -0.2255 -0.6089
   71LA     H14 1496   3.097  -2.538   1.502 -0.9722 -0.8109  0.3788
   71LA     H15 1497   3.118  -2.463   1.652 -0.8815 -2.2906 -0.8790
   71LA     C16 1498   3.159  -2.332   1.476 -0.2820 -0.3729 -0.7375
   71LA     H17 1499   3.123  -2.244   1.529 -0.3311 -0.3331 -0.8370
   71LA     H18 1500   3.129  -2.338   1.371  0.2150  0.6562 -0.9476
   71LA     C19 1501   3.308  -2.344   1.507 -0.0337 -0.2617  0.6624
   71LA     H1A 1502   3.340  -2.447   1.491 -0.0808 -0.2119  0.2357
   71LA     H1B 1503   3.317  -2.325   1.613  0.8060 -0.0734  0.5626
   71LA     H1C 1504   3.379  -2.281   1.452 -0.0098 -1.0813 -0.2675
   72EH     H00 1505   2.249  -2.591   2.496  0.2508  0.0723  0.1792
   72EH     C01 1506   2.357  -2.579   2.482  0.1909  0.3652 -0.0393
   72EH     H02 1507   2.363  -2.470   2.481  1.7463  0.2846 -1.5546
   72EH     H03 1508   2.409  -2.623   2.567  0.8123  1.2331  0.0315
   72EH     C04 1509   2.429  -2.625   2.356 -0.1986 -0.2230 -0.3249
   72EH     C05 1510   2.558  -2.667   2.362 -0.0600  0.0382  0.3384
   72EH     H06 1511   2.597  -2.708   2.269  1.0083  0.4018  0.6208
   72EH     H07 1512   2.580  -2.722   2.453  2.0098 -0.5865 -0.4962
   72EH     C08 1513   2.381  -2.555   2.235 -0.4007 -0.6207  0.4980
   72EH     O09 1514   2.443  -2.561   2.127  0.9885 -0.1487 -0.1009
   72EH     O0A 1515   2.274  -2.475   2.265 -0.0026 -0.3144 -0.2339
   72EH     C0B 1516   2.211  -2.403   2.152 -0.3229  0.4225 -0.3669
   72EH     H0C 1517   2.186  -2.478   2.078  1.3637 -1.6347  1.0649
   72EH     H0D 1518   2.287  -2.334   2.116  0.0677  0.5814  0.7118
   72EH     C0E 1519   2.073  -2.335   2.190 -0.0021 -0.0857  0.6255
   72EH     H0F 1520   2.099  -2.257   2.263 -0.6453 -0.4014  1.1982
   72EH     C0G 1521   2.015  -2.273   2.059  0.6322  0.6658 -0.2305
   72EH     H0H 1522   1.917  -2.229   2.077 -0.0718 -1.9706  2.6412
   72EH     H0I 1523   2.007  -2.345   1.977 -1.1350  1.1369 -0.5010
   72EH     C0J 1524   2.105  -2.153   2.003  0.0925  0.3423  0.1450
   72EH     H0K 1525   2.196  -2.184   1.952 -0.0144  1.1145 -0.5105
   72EH     H0M 1526   2.115  -2.081   2.083 -0.3163  0.5230  0.0358
   72EH     H0N 1527   2.052  -2.096   1.927  1.2085 -0.1495 -1.0368
   72EH     C0O 1528   1.987  -2.437   2.262  0.3459  0.3370 -0.2968
   72EH     H0P 1529   1.975  -2.533   2.213 -1.1204 -0.1301  0.9441
   72EH     H0Q 1530   2.044  -2.474   2.347  2.3201  1.2384 -1.1786
   72EH     C0R 1531   1.853  -2.387   2.316  0.2869  0.1790  0.3989
   72EH     H0S 1532   1.790  -2.331   2.247  2.3255  2.1267  0.0526
   72EH     H0T 1533   1.859  -2.310   2.392 -1.6423  0.3396  0.4065
   72EH     C0U 1534   1.754  -2.501   2.362 -0.4841  0.2763  0.5375
   72EH     H0V 1535   1.661  -2.456   2.398 -0.1579  1.5722 -0.2127
   72EH     H0W 1536   1.733  -2.568   2.279 -0.8675 -0.0401  0.8811
   72EH     C0X 1537   1.815  -2.584   2.482  0.2086  0.1687 -0.1033
   72EH     H0Y 1538   1.750  -2.662   2.521  2.0387 -0.7423  1.1891
   72EH     H0Z 1539   1.854  -2.527   2.565 -1.3505  0.4512  0.4620
   72EH     H10 1540   1.902  -2.641   2.450 -1.3252 -1.7115 -1.0569
   73EH     H00 1541   2.565  -2.431   2.516 -0.4832 -0.3715  1.1422
   73EH     C01 1542   2.635  -2.513   2.534  0.3273 -0.0281 -0.2988
   73EH     H02 1543   2.721  -2.467   2.583 -0.6755 -0.0697  1.5505
   73EH     H03 1544   2.601  -2.586   2.608 -1.5049  0.9108 -0.1711
   73EH     C04 1545   2.682  -2.579   2.403 -0.2887 -0.0638  0.4793
   73EH     C05 1546   2.697  -2.510   2.289 -0.3849 -1.2319 -0.3893
   73EH     H06 1547   2.620  -2.437   2.268  1.0178  0.1022 -1.0011
   73EH     H07 1548   2.735  -2.566   2.205 -0.2437 -1.0473 -0.4482
   73EH     C08 1549   2.769  -2.694   2.422 -0.5863  1.0739 -0.8266
   73EH     O09 1550   2.803  -2.775   2.333  0.1631  0.3974 -0.3156
   73EH     O0A 1551   2.811  -2.712   2.548 -0.4702  0.2555  0.4787
   73EH     C0B 1552   2.881  -2.835   2.588  0.2934 -0.3782  0.1619
   73EH     H0C 1553   2.976  -2.833   2.537 -0.3879 -1.2230 -1.1449
   73EH     H0D 1554   2.840  -2.924   2.541  2.0099 -1.4898  0.7433
   73EH     C0E 1555   2.888  -2.827   2.739  0.2557 -0.3348 -0.0777
   73EH     H0F 1556   2.921  -2.725   2.763 -0.2672 -0.0206 -0.6671
   73EH     C0G 1557   2.757  -2.831   2.810 -0.5662 -0.1561  0.5887
   73EH     H0H 1558   2.691  -2.747   2.786  4.0242  3.3638 -0.3493
   73EH     H0I 1559   2.785  -2.818   2.914  1.7501  1.5893 -0.2115
   73EH     C0J 1560   2.673  -2.951   2.785  0.5793 -0.2294  0.0570
   73EH     H0K 1561   2.713  -3.042   2.831  2.5155  0.0440 -1.0350
   73EH     H0M 1562   2.660  -2.970   2.679 -0.5141  0.5418  0.0468
   73EH     H0N 1563   2.577  -2.939   2.835  2.0098 -1.0814  3.1279
   73EH     C0O 1564   2.982  -2.925   2.804  0.1425 -0.5348  0.3898
   73EH     H0P 1565   2.968  -2.928   2.912  0.1031  0.1352  0.4079
   73EH     H0Q 1566   2.953  -3.021   2.761 -2.0581 -0.1221  0.8973
   73EH     C0R 1567   3.129  -2.900   2.773 -0.4075  0.0322 -0.2909
   73EH     H0S 1568   3.160  -2.802   2.810 -0.8280  0.7019 -1.7196
   73EH     H0T 1569   3.151  -2.890   2.667 -2.9243 -0.5637 -0.8935
   73EH     C0U 1570   3.214  -3.020   2.830 -0.5142  1.1588  0.0202
   73EH     H0V 1571   3.199  -3.001   2.936 -1.1195 -2.3116  0.6182
   73EH     H0W 1572   3.174  -3.117   2.800  1.1738  0.2138  0.8377
   73EH     C0X 1573   3.365  -3.000   2.807 -0.1308  0.6560 -0.5440
   73EH     H0Y 1574   3.397  -3.025   2.706  0.5879 -0.9579  0.0769
   73EH     H0Z 1575   3.418  -3.070   2.871 -2.6552 -0.2657  0.6167
   73EH     H10 1576   3.400  -2.903   2.844  1.0803  0.0702 -0.1412
   74LA     H00 1577   2.911  -2.471   2.464  0.2454 -1.6022  1.1779
   74LA     C01 1578   2.924  -2.470   2.356 -0.3719  0.1195  1.0861
   74LA     H02 1579   3.019  -2.425   2.326 -2.3065  2.5222 -1.6917
   74LA     H03 1580   2.944  -2.569   2.315 -1.7253  0.4243 -0.3631
   74LA     C04 1581   2.813  -2.400   2.275 -0.2281  0.5187  0.6840
   74LA     C05 1582   2.760  -2.282   2.322 -0.0152  0.9306 -0.0025
   74LA     H06 1583   2.754  -2.281   2.430  0.4342 -2.4750  0.0873
   74LA     H07 1584   2.681  -2.237   2.264  1.7526  1.9284 -1.7174
   74LA     C08 1585   2.818  -2.416   2.126  0.1152 -0.2568  0.3132
   74LA     O09 1586   2.726  -2.389   2.050 -0.2398  0.3921  0.0607
   74LA     O0A 1587   2.946  -2.452   2.087 -0.3300 -0.6322 -0.1547
   74LA     C0B 1588   2.980  -2.469   1.953 -0.9300  0.0537  0.5552
   74LA     H0C 1589   2.897  -2.511   1.896  0.7816  0.2557 -2.1913
   74LA     H0D 1590   3.020  -2.382   1.900 -0.2972 -1.1765 -1.0555
   74LA     C0E 1591   3.095  -2.570   1.949  0.1330 -0.1890  0.3616
   74LA     H0F 1592   3.097  -2.607   1.847  0.2924  0.6171  0.0677
   74LA     H0G 1593   3.195  -2.528   1.960  1.4506 -3.3653  1.2375
   74LA     C0H 1594   3.092  -2.689   2.048  0.3787 -0.9170  0.0292
   74LA     H0I 1595   3.105  -2.653   2.150 -1.9487 -0.0719  0.0694
   74LA     H0J 1596   2.997  -2.742   2.040  0.2834 -0.6472 -0.6308
   74LA     C0K 1597   3.186  -2.804   2.012  0.6945 -0.7280  0.1395
   74LA     H0M 1598   3.159  -2.842   1.913 -0.5381  0.7112 -0.0944
   74LA     H0N 1599   3.289  -2.774   1.996  0.9035 -0.6708  1.5260
   74LA     C0O 1600   3.171  -2.917   2.112  0.1275  0.5620 -1.3150
   74LA     H0P 1601   3.066  -2.945   2.121 -0.0126  0.5901 -2.8190
   74LA     H0Q 1602   3.225  -3.006   2.077  2.7640  2.0869 -1.2366
   74LA     C0R 1603   3.221  -2.892   2.261  0.5199  0.5613  0.2544
   74LA     H0S 1604   3.329  -2.890   2.275  0.8556 -0.2386 -2.1169
   74LA     H0T 1605   3.189  -2.792   2.291  2.1711  0.8404  1.1458
   74LA     C0U 1606   3.140  -2.986   2.350  0.2659 -0.0740 -0.2537
   74LA     H0V 1607   3.161  -2.962   2.454 -0.6817  0.0782 -0.0920
   74LA     H0W 1608   3.033  -2.965   2.339  0.2251 -0.9058 -1.6569
   74LA     C0X 1609   3.156  -3.137   2.343  0.6049  0.2401 -0.8258
   74LA     H0Y 1610   3.145  -3.173   2.241  3.0015  0.5860 -1.2521
   74LA     H0Z 1611   3.257  -3.151   2.384  0.3954  0.7597 -0.1159
   74LA     C10 1612   3.067  -3.213   2.444 -0.2333  0.1943 -0.0587
   74LA     H11 1613   3.069  -3.164   2.541 -1.5621 -0.7405  0.4585
   74LA     H12 1614   3.110  -3.312   2.461  1.2278  0.7683 -0.3028
   74LA     C13 1615   2.919  -3.223   2.407 -0.0873 -0.7245 -0.4350
   74LA     H14 1616   2.913  -3.242   2.300  3.6452 -0.3420 -0.7850
   74LA     H15 1617   2.863  -3.130   2.418 -1.2346 -1.4419 -0.1113
   74LA     C16 1618   2.848  -3.336   2.471 -0.5310  0.2902 -0.3480
   74LA     H17 1619   2.848  -3.326   2.580 -1.2949  0.0558 -0.3219
   74LA     H18 1620   2.899  -3.428   2.445  2.3955  1.9944 -0.8380
   74LA     C19 1621   2.704  -3.346   2.431  0.4287 -0.2911 -0.5622
   74LA     H1A 1622   2.681  -3.279   2.349  0.2098  1.5125  0.9334
   74LA     H1B 1623   2.646  -3.298   2.510  1.5109 -1.3015  0.8803
   74LA     H1C 1624   2.672  -3.450   2.427  1.4627 -0.6955  1.2122
   75EH     H00 1625   2.934  -2.266   2.508 -2.9461  0.6088 -0.4178
   75EH     C01 1626   2.962  -2.188   2.436  0.0614  0.3258  0.3739
   75EH     H02 1627   2.985  -2.102   2.499  0.5743  1.1189 -0.8801
   75EH     H03 1628   3.057  -2.215   2.389 -1.0763 -1.7427 -0.8315
   75EH     C04 1629   2.851  -2.145   2.332 -0.0776 -0.3072 -0.4984
   75EH     C05 1630   2.888  -2.130   2.202 -0.8355  0.1313 -0.5569
   75EH     H06 1631   2.962  -2.200   2.167 -1.9012 -0.7259 -1.1321
   75EH     H07 1632   2.803  -2.122   2.136 -2.2260 -1.1668  1.0137
   75EH     C08 1633   2.740  -2.061   2.384 -0.4402  0.0171  0.3222
   75EH     O09 1634   2.642  -2.017   2.323  0.5762  0.5897  0.4433
   75EH     O0A 1635   2.755  -2.038   2.522 -0.5042 -0.0674 -0.5883
   75EH     C0B 1636   2.683  -1.939   2.595  0.0998  0.3287  0.0131
   75EH     H0C 1637   2.578  -1.941   2.568  1.0162  0.1274 -3.7393
   75EH     H0D 1638   2.706  -1.835   2.571 -1.8113  1.6196  3.3584
   75EH     C0E 1639   2.694  -1.960   2.737  0.5025  0.2103 -0.6253
   75EH     H0F 1640   2.660  -2.062   2.751 -0.2884  0.5555  0.0546
   75EH     C0G 1641   2.836  -1.937   2.778 -0.8856  0.2264  0.0707
   75EH     H0H 1642   2.897  -2.006   2.720  0.4578  0.4169  1.2461
   75EH     H0I 1643   2.857  -1.982   2.874  0.8228  2.6452  0.8606
   75EH     C0J 1644   2.898  -1.791   2.769  0.4169  0.0820 -0.8277
   75EH     H0K 1645   2.849  -1.724   2.839  0.2650  1.4105 -2.2031
   75EH     H0M 1646   2.885  -1.749   2.670  0.3472  0.2528 -0.7446
   75EH     H0N 1647   3.007  -1.778   2.776  0.3113  0.3810  0.4921
   75EH     C0O 1648   2.588  -1.875   2.809 -0.0241 -0.3178 -0.2551
   75EH     H0P 1649   2.594  -1.769   2.787 -0.3507 -0.7993 -2.8589
   75EH     H0Q 1650   2.489  -1.902   2.771 -0.7834  0.0817  1.3517
   75EH     C0R 1651   2.584  -1.894   2.966 -0.5324  0.7084 -0.1012
   75EH     H0S 1652   2.683  -1.909   3.007 -0.0870  0.7857 -1.1282
   75EH     H0T 1653   2.540  -1.990   2.994  0.3794  0.4805  0.5460
   75EH     C0U 1654   2.510  -1.781   3.033  0.0467 -0.3741  0.1337
   75EH     H0V 1655   2.571  -1.691   3.033 -1.4753  0.6740 -0.7077
   75EH     H0W 1656   2.419  -1.747   2.984 -0.2751  0.4125  1.2499
   75EH     C0X 1657   2.478  -1.809   3.183 -0.1058 -0.4792  0.3564
   75EH     H0Y 1658   2.566  -1.817   3.247 -0.1553 -0.7001  0.3988
   75EH     H0Z 1659   2.407  -1.892   3.192  0.9178 -1.3856  0.0788
   75EH     H10 1660   2.430  -1.719   3.221  0.5916  0.1791 -0.3207
   76EH     H00 1661   2.870  -1.820   2.089 -0.8907  0.1798  1.8162
   76EH     C01 1662   2.849  -1.895   2.166 -0.1166 -1.1078  0.7958
   76EH     H02 1663   2.843  -1.852   2.266  1.2921 -0.6504  0.6931
   76EH     H03 1664   2.751  -1.926   2.132  0.2890  0.0299 -1.5316
   76EH     C04 1665   2.960  -1.996   2.162  0.3627 -0.4599  0.1475
   76EH     C05 1666   3.054  -1.978   2.257 -0.3296 -0.1699  0.0587
   76EH     H06 1667   3.016  -1.946   2.353 -1.7229 -0.6081 -0.3320
   76EH     H07 1668   3.113  -2.068   2.251 -1.0224 -0.6216 -0.0967
   76EH     C08 1669   3.002  -2.047   2.033  0.3864  0.2570  0.3999
   76EH     O09 1670   3.111  -2.094   2.002 -0.2833 -0.1668  0.5852
   76EH     O0A 1671   2.904  -2.038   1.943 -0.2178 -0.3007 -0.3354
   76EH     C0B 1672   2.930  -2.064   1.800  0.0128  0.0624 -0.3337
   76EH     H0C 1673   2.970  -2.166   1.799  0.9909  0.4444 -0.9187
   76EH     H0D 1674   3.009  -2.000   1.762  0.5074  0.6180  1.6155
   76EH     C0E 1675   2.801  -2.038   1.720 -0.2615  0.0201  0.0076
   76EH     H0F 1676   2.841  -2.040   1.618 -0.4933  0.6863 -0.0995
   76EH     C0G 1677   2.693  -2.150   1.721 -1.1551 -0.6369  0.5239
   76EH     H0H 1678   2.744  -2.244   1.739 -0.5397 -0.7064 -1.4875
   76EH     H0I 1679   2.661  -2.154   1.617  1.6379 -0.1250 -0.4045
   76EH     C0J 1680   2.581  -2.136   1.822  0.5372  0.9051  0.2379
   76EH     H0K 1681   2.622  -2.157   1.921  1.3620 -1.2546 -0.5294
   76EH     H0M 1682   2.514  -2.222   1.816  0.9410  0.6547 -0.6643
   76EH     H0N 1683   2.522  -2.045   1.811 -1.4457  0.0023  2.9381
   76EH     C0O 1684   2.751  -1.893   1.728  0.8015 -1.1279  0.2926
   76EH     H0P 1685   2.694  -1.862   1.816  3.1256  1.7392  0.8732
   76EH     H0Q 1686   2.833  -1.822   1.713 -0.9414  0.9457  0.3913
   76EH     C0R 1687   2.635  -1.862   1.628  0.0011  0.7328 -0.4988
   76EH     H0S 1688   2.538  -1.896   1.664 -0.1082  0.2776 -1.2064
   76EH     H0T 1689   2.645  -1.929   1.542  0.8484  0.3611 -0.1179
   76EH     C0U 1690   2.628  -1.724   1.576 -0.6185  0.5017  0.2791
   76EH     H0V 1691   2.729  -1.690   1.553 -1.2012  0.2596 -2.7795
   76EH     H0W 1692   2.579  -1.734   1.480 -0.0274  1.1627 -0.0971
   76EH     C0X 1693   2.549  -1.630   1.663  0.4737 -0.7140  0.4142
   76EH     H0Y 1694   2.585  -1.629   1.766  0.3192 -0.8651  0.4708
   76EH     H0Z 1695   2.448  -1.669   1.673  0.7850 -2.1220 -1.7041
   76EH     H10 1696   2.542  -1.529   1.622 -0.1207 -0.5871  0.8251
   77EH     H00 1697   3.377  -1.886   2.199  1.6316 -1.2091 -2.0420
   77EH     C01 1698   3.285  -1.937   2.169  0.2968 -0.0623  0.0198
   77EH     H02 1699   3.272  -1.932   2.061  0.2811  1.4761  0.0780
   77EH     H03 1700   3.303  -2.040   2.198 -1.7309  0.3222  2.8307
   77EH     C04 1701   3.174  -1.869   2.258  0.3882 -0.6729 -0.0715
   77EH     C05 1702   3.112  -1.763   2.200  0.1182 -0.1845 -0.0720
   77EH     H06 1703   3.110  -1.770   2.092  0.0396 -2.2819  0.0455
   77EH     H07 1704   3.024  -1.730   2.254 -0.2163  0.2014 -0.8442
   77EH     C08 1705   3.186  -1.871   2.402 -0.2560  0.3375 -0.6581
   77EH     O09 1706   3.128  -1.792   2.478 -0.1309 -0.1762  0.1849
   77EH     O0A 1707   3.260  -1.979   2.452 -0.2423  0.2945 -0.1279
   77EH     C0B 1708   3.283  -1.978   2.592 -0.5138 -0.3514  0.1455
   77EH     H0C 1709   3.185  -1.964   2.638 -1.4199 -3.1542 -0.8101
   77EH     H0D 1710   3.337  -1.888   2.619 -1.9641 -0.1954  2.7397
   77EH     C0E 1711   3.355  -2.108   2.632  0.1000 -0.7261 -0.1820
   77EH     H0F 1712   3.299  -2.188   2.583  0.0145 -0.6286 -0.2443
   77EH     C0G 1713   3.498  -2.099   2.559  0.0240  0.3086  0.0979
   77EH     H0H 1714   3.563  -2.027   2.608 -0.7317 -0.6850  2.6263
   77EH     H0I 1715   3.488  -2.066   2.455  2.8352  1.5122  0.1812
   77EH     C0J 1716   3.575  -2.230   2.560 -0.7757 -0.0210 -0.4934
   77EH     H0K 1717   3.513  -2.316   2.531  1.2422 -1.2874 -1.1278
   77EH     H0M 1718   3.611  -2.263   2.657  0.3625  1.9451 -0.2264
   77EH     H0N 1719   3.662  -2.230   2.495 -1.8381 -0.5552 -1.9569
   77EH     C0O 1720   3.379  -2.117   2.789 -0.2893 -0.0702  0.0652
   77EH     H0P 1721   3.455  -2.191   2.813  0.6188  1.0933  0.8416
   77EH     H0Q 1722   3.421  -2.023   2.825 -0.1541 -0.2491  0.3786
   77EH     C0R 1723   3.260  -2.163   2.871 -0.4833  0.1538 -0.1529
   77EH     H0S 1724   3.224  -2.261   2.838 -0.9146 -0.3105  1.6416
   77EH     H0T 1725   3.173  -2.107   2.839  0.5046  1.0203 -1.3864
   77EH     C0U 1726   3.280  -2.176   3.023  0.3143 -0.1993  0.0548
   77EH     H0V 1727   3.316  -2.083   3.067 -0.7534 -0.6986  2.0601
   77EH     H0W 1728   3.185  -2.191   3.075  1.2858 -0.5319  1.7536
   77EH     C0X 1729   3.363  -2.297   3.064  0.2686  0.2905  0.5382
   77EH     H0Y 1730   3.467  -2.277   3.037 -0.6029  4.3585 -0.0571
   77EH     H0Z 1731   3.335  -2.386   3.008 -0.2001  0.8923 -0.1753
   77EH     H10 1732   3.350  -2.311   3.172  0.1078 -2.2552  0.2167
   78LA     H00 1733   3.325  -1.711   2.065  0.9153 -1.5606  1.7252
   78LA     C01 1734   3.313  -1.637   2.144  0.4268 -0.0320  0.2520
   78LA     H02 1735   3.366  -1.549   2.106 -1.3426  1.0871  0.2935
   78LA     H03 1736   3.371  -1.667   2.231 -0.7662  0.2080  1.1542
   78LA     C04 1737   3.171  -1.610   2.182  0.8944  0.5098  0.5602
   78LA     C05 1738   3.141  -1.548   2.302 -0.4452 -0.4432  0.0924
   78LA     H06 1739   3.034  -1.553   2.316 -0.2296 -3.2606  0.8753
   78LA     H07 1740   3.212  -1.573   2.379  0.5371  0.3696 -0.5304
   78LA     C08 1741   3.076  -1.577   2.075  0.0234 -0.2012  0.1902
   78LA     O09 1742   2.956  -1.559   2.094 -0.3020  0.1263  0.4262
   78LA     O0A 1743   3.135  -1.577   1.956  0.1090 -0.0659  0.5645
   78LA     C0B 1744   3.059  -1.562   1.837  0.6398  0.5507 -0.3043
   78LA     H0C 1745   2.961  -1.607   1.852  1.7504 -2.2277 -1.0406
   78LA     H0D 1746   3.116  -1.615   1.761  0.3088 -0.9602  0.4747
   78LA     C0E 1747   3.044  -1.410   1.811  0.1121 -0.0784  0.5020
   78LA     H0F 1748   2.968  -1.392   1.734  1.0948  0.9905 -0.2363
   78LA     H0G 1749   2.994  -1.366   1.897  2.2663  3.2141  0.1514
   78LA     C0H 1750   3.175  -1.349   1.771 -1.0091 -0.5776  0.2178
   78LA     H0I 1751   3.253  -1.359   1.847  0.4551  1.1723 -1.0037
   78LA     H0J 1752   3.210  -1.395   1.679 -0.8673 -0.9433  0.4517
   78LA     C0K 1753   3.157  -1.198   1.745 -0.4968  0.0627  0.4557
   78LA     H0M 1754   3.094  -1.184   1.657  1.2735  2.8182 -0.4440
   78LA     H0N 1755   3.103  -1.159   1.832 -1.0436  0.0692  0.1149
   78LA     C0O 1756   3.295  -1.133   1.705 -0.2213 -0.1421 -0.7508
   78LA     H0P 1757   3.291  -1.024   1.700  1.3124 -0.0390 -0.1082
   78LA     H0Q 1758   3.364  -1.160   1.784 -0.0180  0.9525 -0.5458
   78LA     C0R 1759   3.355  -1.172   1.569  0.5033 -0.9761 -0.4264
   78LA     H0S 1760   3.379  -1.278   1.558  2.7479 -0.2839 -2.5444
   78LA     H0T 1761   3.287  -1.150   1.487 -1.5090 -1.2141  1.1280
   78LA     C0U 1762   3.480  -1.091   1.556 -0.6554  0.2494 -0.1209
   78LA     H0V 1763   3.458  -0.985   1.573 -1.2403  0.4019 -1.6726
   78LA     H0W 1764   3.548  -1.127   1.633  0.1844  1.2189 -0.4027
   78LA     C0X 1765   3.545  -1.097   1.416  0.1418 -0.0791  0.2092
   78LA     H0Y 1766   3.561  -1.198   1.379  1.4672  0.4301 -0.6514
   78LA     H0Z 1767   3.468  -1.063   1.347 -1.2592 -1.5203  1.0422
   78LA     C10 1768   3.668  -1.006   1.404  0.3410  0.2781  0.4955
   78LA     H11 1769   3.743  -1.037   1.477  1.7172  3.0983  0.3430
   78LA     H12 1770   3.635  -0.907   1.435  1.7655  1.4203 -1.5492
   78LA     C13 1771   3.727  -0.991   1.261 -0.1755  0.7987 -0.0559
   78LA     H14 1772   3.667  -0.919   1.207  1.9381  1.9390 -0.9439
   78LA     H15 1773   3.723  -1.087   1.209 -0.6911  0.1721  1.1307
   78LA     C16 1774   3.876  -0.941   1.255  0.2195  0.3750  0.1788
   78LA     H17 1775   3.923  -0.942   1.156  0.5353  1.5103  0.3197
   78LA     H18 1776   3.935  -1.008   1.318 -0.7794 -1.7601 -1.0887
   78LA     C19 1777   3.882  -0.791   1.291 -1.2665 -0.6038  0.3723
   78LA     H1A 1778   3.825  -0.736   1.216 -0.6605 -1.6850 -0.9038
   78LA     H1B 1779   3.988  -0.765   1.296 -1.7330  0.9684  3.0931
   78LA     H1C 1780   3.843  -0.775   1.392 -1.2089  0.3490  0.2554
   79LA     H00 1781   3.323  -1.256   2.314 -0.3657  0.2011  1.6026
   79LA     C01 1782   3.291  -1.355   2.282  0.3379  0.5792 -0.3663
   79LA     H02 1783   3.293  -1.334   2.175  0.3968 -2.2572 -0.9609
   79LA     H03 1784   3.366  -1.430   2.308 -1.5069 -1.3100 -0.3389
   79LA     C04 1785   3.152  -1.387   2.329  0.2343  0.5388  0.5427
   79LA     C05 1786   3.044  -1.335   2.256  0.4569 -0.0011  0.2360
   79LA     H06 1787   2.948  -1.380   2.276  1.4668 -2.5127 -0.3916
   79LA     H07 1788   3.071  -1.309   2.155 -1.6334 -0.8321 -0.5754
   79LA     C08 1789   3.136  -1.419   2.470  0.4255  0.3791 -0.2650
   79LA     O09 1790   3.025  -1.440   2.523  0.1490 -0.0753  0.0611
   79LA     O0A 1791   3.249  -1.401   2.535 -0.3891  0.1391 -0.0506
   79LA     C0B 1792   3.263  -1.435   2.669 -0.3948  0.0102  0.1725
   79LA     H0C 1793   3.202  -1.519   2.700  2.2473 -1.5460  1.3518
   79LA     H0D 1794   3.234  -1.346   2.725 -0.8427 -0.0656  0.0563
   79LA     C0E 1795   3.414  -1.471   2.691 -0.8055  0.1451 -0.0263
   79LA     H0F 1796   3.477  -1.385   2.667  0.1830  0.7182  4.1865
   79LA     H0G 1797   3.436  -1.495   2.795 -1.0264 -0.0259 -0.0176
   79LA     C0H 1798   3.460  -1.592   2.609  0.9434 -0.1117  0.5306
   79LA     H0I 1799   3.400  -1.680   2.634 -0.5106  0.2700 -1.5016
   79LA     H0J 1800   3.435  -1.566   2.506 -0.0852 -0.4981  0.6772
   79LA     C0K 1801   3.610  -1.621   2.619 -0.3402 -0.5918  0.3587
   79LA     H0M 1802   3.644  -1.655   2.717  1.8745  0.4842  0.0054
   79LA     H0N 1803   3.645  -1.703   2.556  1.9346 -0.2448  1.1053
   79LA     C0O 1804   3.698  -1.503   2.561 -0.0355  0.1610 -0.2793
   79LA     H0P 1805   3.654  -1.481   2.464 -3.7231 -0.5675  1.1323
   79LA     H0Q 1806   3.700  -1.413   2.623  1.5844  1.3213 -1.9932
   79LA     C0R 1807   3.844  -1.553   2.550 -0.3258  0.2927 -0.5290
   79LA     H0S 1808   3.880  -1.566   2.652 -0.3818  1.2128 -0.3848
   79LA     H0T 1809   3.857  -1.651   2.504 -1.6257 -1.4563  2.6315
   79LA     C0U 1810   3.952  -1.464   2.475  0.2499  0.6205 -0.1724
   79LA     H0V 1811   3.992  -1.386   2.539  2.4540 -0.9979  0.5031
   79LA     H0W 1812   4.033  -1.531   2.445  0.2306  1.4239 -2.1572
   79LA     C0X 1813   3.905  -1.407   2.340 -0.5312  0.1045 -0.5982
   79LA     H0Y 1814   3.825  -1.339   2.371 -1.5956 -0.7527 -1.4002
   79LA     H0Z 1815   3.990  -1.350   2.303 -0.4144 -0.2060 -0.8067
   79LA     C10 1816   3.853  -1.503   2.248  0.4599  0.0407 -0.1784
   79LA     H11 1817   3.782  -1.564   2.304  0.6230 -0.2317 -0.2689
   79LA     H12 1818   3.923  -1.575   2.207 -1.8501 -1.0671 -2.3553
   79LA     C13 1819   3.780  -1.436   2.127  0.9316  0.5662 -0.7907
   79LA     H14 1820   3.737  -1.523   2.077  0.9115 -1.1417  2.0540
   79LA     H15 1821   3.850  -1.388   2.059  1.1422  2.3183  0.6264
   79LA     C16 1822   3.674  -1.328   2.178 -0.7088 -0.3269 -0.6859
   79LA     H17 1823   3.713  -1.228   2.193  0.5004 -1.0863  1.5126
   79LA     H18 1824   3.637  -1.359   2.276 -2.0086 -0.4989 -1.2206
   79LA     C19 1825   3.557  -1.313   2.081  0.3767 -0.1655  0.2021
   79LA     H1A 1826   3.498  -1.404   2.071  2.0192 -1.4828  2.1332
   79LA     H1B 1827   3.589  -1.283   1.981 -2.8206  0.8302 -0.5621
   79LA     H1C 1828   3.484  -1.239   2.113  0.8128 -0.7412  2.6322
   80EH     H00 1829   3.188  -1.102   2.339 -0.7152 -0.9579  0.3667
   80EH     C01 1830   3.111  -1.097   2.263 -0.2701  0.1497 -0.0193
   80EH     H02 1831   3.072  -0.997   2.240 -2.1515 -0.1667  1.6094
   80EH     H03 1832   3.155  -1.116   2.165 -1.5361 -2.5502 -0.0954
   80EH     C04 1833   2.988  -1.189   2.280 -0.6252  0.0906 -0.2708
   80EH     C05 1834   2.923  -1.196   2.404 -0.1919 -0.1346 -0.2502
   80EH     H06 1835   2.834  -1.258   2.405 -1.3192  1.4711  0.1948
   80EH     H07 1836   2.992  -1.200   2.487 -0.2954 -1.3568 -0.2148
   80EH     C08 1837   2.907  -1.198   2.160 -0.0243 -0.3116  0.1551
   80EH     O09 1838   2.946  -1.162   2.045 -0.6233 -0.4316  0.3555
   80EH     O0A 1839   2.789  -1.252   2.172  0.0396 -0.4088  0.1372
   80EH     C0B 1840   2.704  -1.293   2.062 -0.2054  0.7138 -0.2170
   80EH     H0C 1841   2.755  -1.342   1.980 -0.9690  1.0819 -0.9276
   80EH     H0D 1842   2.660  -1.198   2.031  2.2383  1.9467 -0.0132
   80EH     C0E 1843   2.593  -1.381   2.122  0.4410  0.4377 -0.3069
   80EH     H0F 1844   2.553  -1.326   2.207  4.6332 -0.0434  2.1202
   80EH     C0G 1845   2.489  -1.420   2.012 -0.8908 -0.1958 -1.0220
   80EH     H0H 1846   2.442  -1.517   2.027  0.4792 -0.8738 -1.0548
   80EH     H0I 1847   2.541  -1.436   1.917 -0.3745  2.1950 -1.1748
   80EH     C0J 1848   2.385  -1.306   2.000 -0.6486  0.0382 -0.1519
   80EH     H0K 1849   2.311  -1.300   2.080 -1.6638  4.4179 -1.2870
   80EH     H0M 1850   2.324  -1.319   1.911 -2.3845  1.2869  0.8297
   80EH     H0N 1851   2.437  -1.211   2.002 -1.4570  0.4642  1.7491
   80EH     C0O 1852   2.656  -1.507   2.194 -0.3454  0.0702 -0.1936
   80EH     H0P 1853   2.697  -1.572   2.116  0.2721  1.2465 -0.8726
   80EH     H0Q 1854   2.742  -1.478   2.254 -0.7420  1.3081 -0.2289
   80EH     C0R 1855   2.557  -1.596   2.282 -0.0271  0.0962 -0.4428
   80EH     H0S 1856   2.602  -1.691   2.309 -0.0790  0.2793  0.2875
   80EH     H0T 1857   2.460  -1.615   2.234 -0.2234 -1.4921  0.5743
   80EH     C0U 1858   2.529  -1.537   2.425 -0.4375 -0.4789 -0.1785
   80EH     H0V 1859   2.477  -1.441   2.422 -1.0662 -0.8160 -0.0378
   80EH     H0W 1860   2.460  -1.605   2.475 -2.3822  0.7583 -1.1396
   80EH     C0X 1861   2.652  -1.536   2.515  0.3884  0.3872  0.4364
   80EH     H0Y 1862   2.616  -1.521   2.616  3.3038 -2.1128  1.9357
   80EH     H0Z 1863   2.706  -1.446   2.488 -0.6471  0.4928 -1.3784
   80EH     H10 1864   2.706  -1.630   2.511 -1.1513 -0.5452  0.9319
   81ST     H00 1865   3.070  -0.997   2.500 -0.3901  1.2537  1.3023
   81ST     C01 1866   2.967  -0.964   2.491 -0.5212  0.3933 -0.5664
   81ST     H02 1867   2.953  -0.912   2.586 -2.0010 -0.7349 -0.1458
   81ST     H03 1868   2.962  -0.888   2.413  0.1787  0.1823 -0.8194
   81ST     C04 1869   2.854  -1.072   2.466  0.4869  0.2109 -0.2037
   81ST     C05 1870   2.761  -1.037   2.364  0.3456  0.0631  0.4107
   81ST     H06 1871   2.697  -1.121   2.345  1.1038 -0.2923 -0.5753
   81ST     H07 1872   2.806  -0.990   2.278 -0.3905 -1.1393 -0.6410
   81ST     C08 1873   2.812  -1.150   2.583 -0.1949 -0.2315  0.5455
   81ST     O09 1874   2.712  -1.218   2.596 -0.1996 -0.5292 -0.3183
   81ST     O0A 1875   2.896  -1.130   2.688  0.0612  0.1981 -0.0957
   81ST     C0B 1876   2.880  -1.195   2.808  0.0855  0.2646 -1.0594
   81ST     H0C 1877   2.838  -1.291   2.778 -1.2030  0.3409  0.3859
   81ST     H0D 1878   2.980  -1.217   2.846  0.3292  1.1399 -1.1993
   81ST     C0E 1879   2.806  -1.106   2.908 -0.2740 -0.0219  0.0726
   81ST     H0F 1880   2.768  -1.161   2.994  1.2804 -0.2124  0.6324
   81ST     H0G 1881   2.718  -1.070   2.853 -0.4013  1.8262  1.4404
   81ST     C0H 1882   2.895  -0.994   2.954 -0.9224  0.3177  0.2840
   81ST     H0I 1883   2.929  -0.946   2.861  0.0864  1.2703  1.1333
   81ST     H0J 1884   2.989  -1.024   2.998 -1.0120 -0.1527  0.1647
   81ST     C0K 1885   2.834  -0.897   3.056 -1.1866  0.1725  0.0736
   81ST     H0M 1886   2.767  -0.961   3.114  0.8994 -2.0430  0.1288
   81ST     H0N 1887   2.917  -0.865   3.120 -0.8829 -0.9732  0.2618
   81ST     C0O 1888   2.747  -0.783   2.997 -0.8524 -0.8425  0.3971
   81ST     H0P 1889   2.682  -0.826   2.921  0.2334  0.2474 -1.1635
   81ST     H0Q 1890   2.806  -0.714   2.937 -0.0320 -0.6595  1.4104
   81ST     C0R 1891   2.676  -0.694   3.101 -0.2159  0.3797 -0.6299
   81ST     H0S 1892   2.746  -0.655   3.175 -1.9169 -0.2093  1.3336
   81ST     H0T 1893   2.599  -0.749   3.155 -0.8272 -0.4672 -2.3498
   81ST     C0U 1894   2.604  -0.578   3.032 -0.5298  0.0807 -0.1747
   81ST     H0V 1895   2.523  -0.607   2.965 -1.7669  0.0134  1.3326
   81ST     H0W 1896   2.683  -0.526   2.977 -1.0523 -1.1379 -2.1546
   81ST     C0X 1897   2.548  -0.472   3.125  0.1671  0.0970  0.1762
   81ST     H0Y 1898   2.447  -0.500   3.153 -0.7093  1.8320 -1.2113
   81ST     H0Z 1899   2.606  -0.473   3.218 -0.7891 -0.8615  0.7693
   81ST     C10 1900   2.541  -0.332   3.063  0.1866  0.1976  0.0950
   81ST     H11 1901   2.648  -0.313   3.064 -0.0753  1.8162 -1.0402
   81ST     H12 1902   2.503  -0.331   2.961  0.0064  1.6102  0.1629
   81ST     C13 1903   2.470  -0.228   3.152  0.1117 -0.2040 -0.3505
   81ST     H14 1904   2.484  -0.239   3.260 -3.1274 -0.3831  0.1058
   81ST     H15 1905   2.507  -0.128   3.128  1.5174 -0.3680  1.0454
   81ST     C16 1906   2.318  -0.236   3.125  0.8913 -0.5676  0.4581
   81ST     H17 1907   2.297  -0.235   3.018  0.6539  1.4736  0.5094
   81ST     H18 1908   2.285  -0.336   3.154 -0.0370 -0.4915 -0.3038
   81ST     C19 1909   2.256  -0.120   3.207  0.0132 -0.0812 -0.0549
   81ST     H1A 1910   2.274  -0.147   3.311 -0.7972  0.2664  0.1765
   81ST     H1B 1911   2.307  -0.026   3.184  0.8723 -0.2170  1.2118
   81ST     C1C 1912   2.102  -0.104   3.190  0.0772  0.0897 -0.0589
   81ST     H1D 1913   2.049  -0.193   3.225  2.6899 -1.4092  0.1750
   81ST     H1E 1914   2.060  -0.023   3.250 -1.3161  1.3118 -2.5496
   81ST     C1F 1915   2.056  -0.079   3.044 -0.1922 -0.5077  0.2950
   81ST     H1G 1916   2.067   0.028   3.025 -0.2144 -0.4853  0.4095
   81ST     H1H 1917   2.113  -0.124   2.963  1.4517  2.2837 -0.1822
   81ST     C1I 1918   1.907  -0.121   3.021  0.1908 -0.0392  0.0920
   81ST     H1J 1919   1.845  -0.099   3.108 -2.4328 -0.0840 -1.6874
   81ST     H1K 1920   1.909  -0.230   3.020  0.4721 -0.0344  0.1782
   81ST     C1M 1921   1.841  -0.069   2.895 -0.3182  0.0886  0.0382
   81ST     H1N 1922   1.902  -0.074   2.805 -0.0653 -2.0247  0.3034
   81ST     H1O 1923   1.828   0.039   2.904  0.3356  0.2396 -0.8329
   81ST     C1P 1924   1.707  -0.138   2.870  0.1257 -0.1853 -0.4594
   81ST     H1Q 1925   1.717  -0.247   2.868  3.2929  0.0887 -0.7243
   81ST     H1R 1926   1.632  -0.106   2.943 -0.4956  1.3131 -1.7338
   81ST     C1S 1927   1.639  -0.080   2.743  0.7111 -0.9181  0.1147
   81ST     H1T 1928   1.540  -0.123   2.728  1.3474 -1.7025 -1.9484
   81ST     H1U 1929   1.704  -0.101   2.658  1.0851  0.4700  0.0367
   81ST     H1V 1930   1.629   0.029   2.742  1.9687 -0.7550  2.3518
   82ST     H00 1931   2.746  -0.792   2.531 -0.1256 -0.0754  0.1392
   82ST     C01 1932   2.713  -0.801   2.427  0.0161  0.4485  0.0450
   82ST     H02 1933   2.639  -0.727   2.400 -0.4834  0.4067  1.2915
   82ST     H03 1934   2.796  -0.779   2.359 -2.0996 -1.9240 -3.4823
   82ST     C04 1935   2.643  -0.935   2.384  0.0165 -0.4029 -0.2685
   82ST     C05 1936   2.574  -0.988   2.483  0.5927 -0.4813 -1.0643
   82ST     H06 1937   2.624  -0.976   2.578  0.0391  0.1910 -0.8480
   82ST     H07 1938   2.517  -1.078   2.466  0.0165 -0.4136  0.4133
   82ST     C08 1939   2.603  -0.958   2.243 -0.4313  0.0435  0.4771
   82ST     O09 1940   2.541  -1.053   2.193  0.1949 -0.2067 -0.8866
   82ST     O0A 1941   2.639  -0.853   2.172  0.5653  0.0034  0.0637
   82ST     C0B 1942   2.581  -0.841   2.045 -0.5065 -0.5884 -0.0466
   82ST     H0C 1943   2.472  -0.843   2.039 -0.4568  0.5656 -1.4873
   82ST     H0D 1944   2.615  -0.915   1.972  0.7725  1.1001 -1.2047
   82ST     C0E 1945   2.613  -0.702   1.985 -1.1912  0.6250  0.1355
   82ST     H0F 1946   2.581  -0.627   2.057  0.0158  1.6691 -0.4021
   82ST     H0G 1947   2.546  -0.673   1.905 -1.7603 -1.1991 -0.0648
   82ST     C0H 1948   2.756  -0.696   1.936 -0.6958  0.3719 -0.2636
   82ST     H0I 1949   2.749  -0.758   1.846 -1.0129 -2.6287  1.7523
   82ST     H0J 1950   2.825  -0.727   2.014  2.3738 -0.6047 -3.2538
   82ST     C0K 1951   2.794  -0.550   1.888 -0.5793  0.7877  0.2941
   82ST     H0M 1952   2.899  -0.557   1.861 -0.6428 -0.6803  0.3901
   82ST     H0N 1953   2.752  -0.519   1.792 -0.1943  1.5008  0.3521
   82ST     C0O 1954   2.769  -0.437   1.993  0.3323  0.1875  0.3921
   82ST     H0P 1955   2.662  -0.432   2.008  0.3054  0.7716  0.0214
   82ST     H0Q 1956   2.795  -0.342   1.948 -2.3169  0.9999  0.4992
   82ST     C0R 1957   2.846  -0.457   2.125 -0.3928  0.4560 -0.0982
   82ST     H0S 1958   2.953  -0.462   2.106 -0.1358 -0.8838  1.6102
   82ST     H0T 1959   2.825  -0.552   2.174 -3.0660  1.3732  0.6071
   82ST     C0U 1960   2.832  -0.338   2.229  0.2534  0.1720  0.3639
   82ST     H0V 1961   2.870  -0.246   2.183 -0.2377 -0.2771 -0.9520
   82ST     H0W 1962   2.908  -0.363   2.303  0.2857 -0.0020  0.2702
   82ST     C0X 1963   2.690  -0.307   2.290  0.1904  0.0145  0.6237
   82ST     H0Y 1964   2.693  -0.208   2.335 -0.2127 -0.6047  2.0370
   82ST     H0Z 1965   2.619  -0.291   2.209  1.0199  1.7489  0.2130
   82ST     C10 1966   2.628  -0.427   2.378 -0.0402 -0.3904 -0.0128
   82ST     H11 1967   2.522  -0.413   2.397  0.4445  2.2269  1.1479
   82ST     H12 1968   2.630  -0.519   2.320 -1.5968  0.5846 -1.6531
   82ST     C13 1969   2.711  -0.451   2.508  0.4746 -0.0035 -0.6652
   82ST     H14 1970   2.663  -0.532   2.564  1.1252 -1.8184 -2.6724
   82ST     H15 1971   2.804  -0.497   2.476 -0.5567 -2.6818  0.0215
   82ST     C16 1972   2.745  -0.324   2.596  0.1757  0.2251  0.2300
   82ST     H17 1973   2.777  -0.247   2.525 -0.8344  0.4691  0.0239
   82ST     H18 1974   2.649  -0.279   2.622  1.2733  2.3163  0.7971
   82ST     C19 1975   2.836  -0.360   2.714 -0.5585  0.1077  0.3884
   82ST     H1A 1976   2.849  -0.281   2.788  2.8382  0.3376 -0.3590
   82ST     H1B 1977   2.790  -0.446   2.762 -1.2425 -0.2706 -0.9181
   82ST     C1C 1978   2.979  -0.415   2.686  0.5635 -0.2335  0.4998
   82ST     H1D 1979   2.979  -0.509   2.632 -1.1464 -0.1373  0.2982
   82ST     H1E 1980   3.035  -0.345   2.625 -1.2683 -1.5721 -2.8546
   82ST     C1F 1981   3.062  -0.425   2.811 -0.9909  0.6376  0.2068
   82ST     H1G 1982   3.161  -0.457   2.782 -2.3512 -1.3763 -2.3591
   82ST     H1H 1983   3.081  -0.326   2.854  0.9278 -0.1659  1.2738
   82ST     C1I 1984   3.004  -0.527   2.918 -0.3008  0.4379 -0.6844
   82ST     H1J 1985   3.009  -0.630   2.882  2.0472  0.1500  0.4205
   82ST     H1K 1986   2.897  -0.508   2.928  0.3010  2.2139  3.4558
   82ST     C1M 1987   3.075  -0.517   3.054 -0.1338 -0.1951  0.6339
   82ST     H1N 1988   3.021  -0.580   3.124  1.3314 -0.5957  1.4236
   82ST     H1O 1989   3.064  -0.412   3.082  0.2726  0.2277 -0.7093
   82ST     C1P 1990   3.223  -0.553   3.063  0.0383  0.4467 -0.2971
   82ST     H1Q 1991   3.285  -0.496   2.993  1.1027  1.6227  1.5641
   82ST     H1R 1992   3.260  -0.532   3.163  1.2947  0.3490 -0.7346
   82ST     C1S 1993   3.256  -0.699   3.031 -0.7957 -0.2764  0.7215
   82ST     H1T 1994   3.216  -0.769   3.104  0.7160 -0.7147  1.1598
   82ST     H1U 1995   3.365  -0.711   3.036 -0.8029 -1.5946 -1.4752
   82ST     H1V 1996   3.217  -0.711   2.930 -0.1762  0.3090  0.4104
   83LA     H00 1997   2.575  -0.810   2.694  1.5848  2.0380 -0.3785
   83LA     C01 1998   2.492  -0.790   2.625  0.2274  0.0268  0.6032
   83LA     H02 1999   2.413  -0.777   2.699  0.5853 -0.9738  1.1760
   83LA     H03 2000   2.517  -0.698   2.571  3.6252 -0.4379  1.2324
   83LA     C04 2001   2.442  -0.909   2.535  0.0755  0.5431  0.6620
   83LA     C05 2002   2.378  -0.875   2.416  0.2131 -0.0093  0.2888
   83LA     H06 2003   2.350  -0.960   2.356 -1.4378  0.7630 -0.0447
   83LA     H07 2004   2.427  -0.789   2.374  0.1855 -0.6298 -1.0457
   83LA     C08 2005   2.395  -1.028   2.609  0.3741  0.2755 -0.1159
   83LA     O09 2006   2.326  -1.116   2.562 -0.0685 -0.3785  0.1730
   83LA     O0A 2007   2.424  -1.020   2.734  0.4094  0.2661  0.5203
   83LA     C0B 2008   2.429  -1.141   2.815 -0.1575  0.0718 -0.3449
   83LA     H0C 2009   2.516  -1.128   2.880 -2.2935  0.6747  2.4526
   83LA     H0D 2010   2.446  -1.228   2.751  0.4074 -1.5258  1.9336
   83LA     C0E 2011   2.297  -1.174   2.875 -0.4650  0.0880 -0.1977
   83LA     H0F 2012   2.259  -1.083   2.920  0.7263  1.6928 -2.3899
   83LA     H0G 2013   2.226  -1.192   2.795  0.3543  1.3960 -1.2363
   83LA     C0H 2014   2.311  -1.289   2.983  0.4699  0.1630  0.1191
   83LA     H0I 2015   2.375  -1.279   3.071  1.2428  0.0895 -0.4254
   83LA     H0J 2016   2.216  -1.297   3.036 -0.1062 -2.3135 -1.1901
   83LA     C0K 2017   2.333  -1.426   2.930 -0.1657  0.2777 -0.4137
   83LA     H0M 2018   2.437  -1.445   2.900  0.6948 -1.7330  3.5964
   83LA     H0N 2019   2.315  -1.496   3.011 -0.6774 -0.1391 -0.8844
   83LA     C0O 2020   2.248  -1.458   2.812  0.2511  0.1135  0.6359
   83LA     H0P 2021   2.143  -1.442   2.835 -0.0706  1.2355 -1.4383
   83LA     H0Q 2022   2.273  -1.393   2.728 -2.1702  2.3118  1.5588
   83LA     C0R 2023   2.252  -1.603   2.760 -0.0595  0.1249  0.3374
   83LA     H0S 2024   2.359  -1.622   2.752 -0.0731  0.0400  0.3576
   83LA     H0T 2025   2.214  -1.669   2.837  0.0141 -0.5049 -0.1649
   83LA     C0U 2026   2.177  -1.626   2.627 -0.7437  0.0841  0.6196
   83LA     H0V 2027   2.079  -1.585   2.651 -1.5722 -1.1617 -0.6174
   83LA     H0W 2028   2.231  -1.565   2.554 -1.7534 -1.2273 -1.2347
   83LA     C0X 2029   2.176  -1.778   2.597  0.2334 -0.0781  0.3865
   83LA     H0Y 2030   2.278  -1.817   2.589  1.1808  2.3215  0.2746
   83LA     H0Z 2031   2.116  -1.831   2.670  0.3690 -2.1853 -0.9863
   83LA     C10 2032   2.105  -1.810   2.473 -0.3751  0.2579  0.0445
   83LA     H11 2033   2.118  -1.727   2.404 -1.1508 -0.6637 -1.2176
   83LA     H12 2034   1.998  -1.824   2.487 -0.2963 -0.4923 -0.0929
   83LA     C13 2035   2.161  -1.939   2.407  1.1099 -0.3440  0.3983
   83LA     H14 2036   2.077  -1.973   2.345  0.7008  1.8513 -0.2821
   83LA     H15 2037   2.185  -2.015   2.481  1.2182  0.6024  1.3319
   83LA     C16 2038   2.276  -1.925   2.309  0.0736 -0.4038  0.6604
   83LA     H17 2039   2.291  -2.022   2.262 -0.4705  0.2748 -0.9282
   83LA     H18 2040   2.361  -1.910   2.376  0.0026 -1.8647  1.1131
   83LA     C19 2041   2.253  -1.827   2.192 -0.0689 -0.0222 -0.2421
   83LA     H1A 2042   2.164  -1.854   2.135  0.3057 -2.0507  0.1062
   83LA     H1B 2043   2.345  -1.825   2.133  0.4378  0.3789  0.5453
   83LA     H1C 2044   2.234  -1.725   2.225 -2.8795 -0.4883 -0.2709
   84ST     H00 2045   2.313  -0.634   2.515 -0.2979 -0.5923  0.2729
   84ST     C01 2046   2.234  -0.709   2.516 -0.2114 -0.6835  0.1921
   84ST     H02 2047   2.224  -0.747   2.618 -0.2858 -0.7476  0.1610
   84ST     H03 2048   2.151  -0.643   2.490  1.9719  1.6401 -1.0239
   84ST     C04 2049   2.233  -0.815   2.404  0.2259  0.3982 -0.5932
   84ST     C05 2050   2.152  -0.924   2.419  0.0663  0.1477  0.1700
   84ST     H06 2051   2.160  -0.992   2.335 -0.7757 -1.6742  1.5210
   84ST     H07 2052   2.146  -0.968   2.518  0.2381  0.2319  0.2191
   84ST     C08 2053   2.261  -0.766   2.269 -0.1212  0.5271 -0.3580
   84ST     O09 2054   2.274  -0.839   2.170 -0.4808  0.4543  0.3360
   84ST     O0A 2055   2.248  -0.640   2.261 -0.0001  0.5058 -0.4321
   84ST     C0B 2056   2.255  -0.568   2.139  0.2804  0.5186  0.5657
   84ST     H0C 2057   2.349  -0.595   2.091  1.3471  0.6593  2.5240
   84ST     H0D 2058   2.173  -0.604   2.077  1.3151  0.5148 -0.8046
   84ST     C0E 2059   2.253  -0.419   2.190  0.2781  0.6672  0.1364
   84ST     H0F 2060   2.285  -0.355   2.108  1.5962  0.3200  0.3632
   84ST     H0G 2061   2.316  -0.416   2.279  0.3690 -4.3861  0.4177
   84ST     C0H 2062   2.106  -0.382   2.224  0.6836  0.2023 -0.2089
   84ST     H0I 2063   2.063  -0.468   2.277 -0.6357  0.7125 -0.4493
   84ST     H0J 2064   2.061  -0.373   2.126  1.2632 -1.1228 -0.6171
   84ST     C0K 2065   2.077  -0.253   2.303 -0.8929  0.0785 -0.1726
   84ST     H0M 2066   2.111  -0.164   2.249 -1.5653  0.0939 -0.5872
   84ST     H0N 2067   1.970  -0.233   2.313 -0.6203  1.1904  0.5980
   84ST     C0O 2068   2.146  -0.244   2.438 -0.4154  0.6233 -0.6875
   84ST     H0P 2069   2.150  -0.139   2.468 -0.5702  0.1889  0.9191
   84ST     H0Q 2070   2.245  -0.283   2.419  0.0229 -0.0366  2.5615
   84ST     C0R 2071   2.069  -0.335   2.540 -0.4496  0.6208 -0.1153
   84ST     H0S 2072   2.040  -0.431   2.497  0.7543  0.7286 -1.1744
   84ST     H0T 2073   1.974  -0.288   2.566 -1.3978 -1.1567 -0.2788
   84ST     C0U 2074   2.149  -0.351   2.672  0.2701 -0.2124 -0.1001
   84ST     H0V 2075   2.174  -0.247   2.688  0.2909 -0.2513  0.1165
   84ST     H0W 2076   2.234  -0.419   2.661  0.3235 -0.0464 -0.7161
   84ST     C0X 2077   2.064  -0.413   2.785 -0.6571 -0.6673  0.2118
   84ST     H0Y 2078   2.028  -0.328   2.842 -0.3273 -0.4601  0.1100
   84ST     H0Z 2079   1.975  -0.464   2.747 -0.6952 -0.5662  0.1652
   84ST     C10 2080   2.146  -0.504   2.880  0.3531  0.2522  0.6262
   84ST     H11 2081   2.190  -0.588   2.826 -1.9163 -2.1025  2.2916
   84ST     H12 2082   2.225  -0.443   2.924 -0.2856  1.2296  0.4461
   84ST     C13 2083   2.067  -0.569   2.988 -0.3362  0.7226  0.2518
   84ST     H14 2084   2.038  -0.495   3.062 -0.2098 -0.4656  1.5276
   84ST     H15 2085   1.983  -0.621   2.943  0.7039 -0.9559  0.1977
   84ST     C16 2086   2.152  -0.672   3.070  0.4721  0.0805  0.5552
   84ST     H17 2087   2.192  -0.750   3.005 -0.2906 -1.3999  1.8226
   84ST     H18 2088   2.238  -0.619   3.110  0.4714  0.7123 -0.2635
   84ST     C19 2089   2.072  -0.745   3.178 -1.2155 -0.7224 -0.4262
   84ST     H1A 2090   2.024  -0.673   3.244  0.2301  0.3720 -0.5525
   84ST     H1B 2091   1.985  -0.785   3.125 -1.5436 -1.2695  0.5253
   84ST     C1C 2092   2.150  -0.860   3.246  0.4291 -0.6493 -0.2583
   84ST     H1D 2093   2.159  -0.940   3.172 -0.6430 -1.5923  0.6121
   84ST     H1E 2094   2.252  -0.829   3.272 -0.4352  1.0384  1.2581
   84ST     C1F 2095   2.088  -0.930   3.368  0.5383 -0.4504  0.0251
   84ST     H1G 2096   2.084  -0.870   3.459 -2.3950 -0.6964  0.1083
   84ST     H1H 2097   1.985  -0.949   3.339 -0.0599 -0.9275  2.3607
   84ST     C1I 2098   2.157  -1.057   3.405 -0.0294 -0.6273 -0.1915
   84ST     H1J 2099   2.234  -1.018   3.472 -0.4850  1.0585 -0.6383
   84ST     H1K 2100   2.215  -1.094   3.320 -0.4656 -0.7956 -0.4138
   84ST     C1M 2101   2.082  -1.170   3.478 -0.0849  0.3302  0.0097
   84ST     H1N 2102   2.011  -1.209   3.406  1.7409 -0.2838 -1.5151
   84ST     H1O 2103   2.040  -1.122   3.566 -1.1403 -0.3359 -0.1226
   84ST     C1P 2104   2.181  -1.280   3.530 -0.5401  0.1532  0.3156
   84ST     H1Q 2105   2.273  -1.229   3.562  0.6365 -1.8000  0.0916
   84ST     H1R 2106   2.132  -1.321   3.619 -0.6956  0.5999  0.4383
   84ST     C1S 2107   2.226  -1.385   3.430  0.1649  0.1463  0.1824
   84ST     H1T 2108   2.289  -1.462   3.475 -0.7890 -0.6537  0.1542
   84ST     H1U 2109   2.279  -1.348   3.342  1.8802  1.5559  1.7893
   84ST     H1V 2110   2.146  -1.439   3.379  0.3431 -0.5372  0.6215
   85ST     H00 2111   1.864  -0.828   2.581  0.3883 -1.3802  2.5609
   85ST     C01 2112   1.963  -0.821   2.535 -0.9431 -0.1493 -0.2315
   85ST     H02 2113   1.958  -0.715   2.510  3.0261  0.3662  0.8860
   85ST     H03 2114   2.036  -0.831   2.616 -0.7290  2.2603 -0.0769
   85ST     C04 2115   1.991  -0.903   2.410  0.0654  0.2915 -0.1382
   85ST     C05 2116   1.973  -0.849   2.288 -0.0421 -0.1136 -0.7347
   85ST     H06 2117   1.994  -0.743   2.284  1.1915 -0.4052 -2.5437
   85ST     H07 2118   1.988  -0.911   2.200 -0.6029 -1.4031  0.0749
   85ST     C08 2119   1.965  -1.049   2.425  0.8844  0.1083 -0.0253
   85ST     O09 2120   1.972  -1.133   2.335 -0.0200  0.1597  0.3145
   85ST     O0A 2121   1.925  -1.066   2.547  0.0170 -0.0826  0.0061
   85ST     C0B 2122   1.913  -1.202   2.585 -0.7276  0.6743  0.0111
   85ST     H0C 2123   1.858  -1.253   2.506 -1.3080  0.6579  0.4250
   85ST     H0D 2124   2.016  -1.237   2.591 -0.2036  2.1646 -0.1796
   85ST     C0E 2125   1.831  -1.223   2.718 -0.1462  0.1793  0.1022
   85ST     H0F 2126   1.821  -1.324   2.758  1.5679  0.6487  1.7717
   85ST     H0G 2127   1.728  -1.190   2.702 -0.7618 -1.2855  0.8694
   85ST     C0H 2128   1.906  -1.163   2.841 -0.1550 -0.0182  0.0906
   85ST     H0I 2129   1.940  -1.064   2.811 -0.0712  0.5091  1.8678
   85ST     H0J 2130   1.993  -1.225   2.863 -0.9462 -0.7840  1.1217
   85ST     C0K 2131   1.826  -1.155   2.974  0.8050  0.1836 -0.1694
   85ST     H0M 2132   1.891  -1.131   3.058  1.0249  1.6336 -0.7367
   85ST     H0N 2133   1.750  -1.077   2.971 -0.7589 -1.3422 -1.0662
   85ST     C0O 2134   1.743  -1.277   3.014 -0.1512  0.4216 -0.0141
   85ST     H0P 2135   1.692  -1.322   2.929  1.5742 -0.7199 -0.4794
   85ST     H0Q 2136   1.679  -1.235   3.091 -0.0473  0.0226  0.2918
   85ST     C0R 2137   1.826  -1.392   3.093  0.6924  0.0559 -0.3862
   85ST     H0S 2138   1.756  -1.414   3.173 -0.6589 -1.1951 -1.8694
   85ST     H0T 2139   1.915  -1.355   3.143  0.9125  0.3421 -0.9768
   85ST     C0U 2140   1.850  -1.521   3.013 -0.0294  0.0478 -0.0977
   85ST     H0V 2141   1.916  -1.508   2.927  1.7464 -2.7845  0.7801
   85ST     H0W 2142   1.762  -1.564   2.966 -0.1691 -1.5003  1.5426
   85ST     C0X 2143   1.923  -1.621   3.101  0.1711  0.1352  0.7612
   85ST     H0Y 2144   2.008  -1.572   3.148  0.8728  0.7639 -1.1323
   85ST     H0Z 2145   1.851  -1.643   3.180 -2.2672 -0.8972 -1.7003
   85ST     C10 2146   1.965  -1.752   3.031 -0.6501 -0.3540 -0.8517
   85ST     H11 2147   1.875  -1.804   2.998 -0.3269  0.0336 -2.3831
   85ST     H12 2148   2.021  -1.730   2.940 -0.3896  0.9978 -0.3701
   85ST     C13 2149   2.049  -1.837   3.131 -0.3611 -0.4936  0.0896
   85ST     H14 2150   2.150  -1.798   3.148 -0.8725  0.5768  0.7346
   85ST     H15 2151   1.994  -1.840   3.225  0.1160  1.0443  0.4261
   85ST     C16 2152   2.067  -1.982   3.080 -0.0192  0.3144  0.1441
   85ST     H17 2153   2.112  -2.037   3.163 -1.0556 -0.1511  0.4058
   85ST     H18 2154   1.971  -2.030   3.057  0.0088 -0.0629  0.8223
   85ST     C19 2155   2.165  -1.995   2.960 -0.3470 -0.1639  0.1171
   85ST     H1A 2156   2.120  -1.949   2.871  0.9927 -0.1444 -0.5570
   85ST     H1B 2157   2.253  -1.933   2.977 -0.6116  0.3283 -0.2668
   85ST     C1C 2158   2.202  -2.142   2.934 -0.4447 -0.2077 -0.5803
   85ST     H1D 2159   2.282  -2.172   3.002  0.8753  0.2627 -1.9188
   85ST     H1E 2160   2.119  -2.210   2.954 -1.5252  0.8971 -1.2525
   85ST     C1F 2161   2.263  -2.155   2.787  0.4890 -0.1936  1.0935
   85ST     H1G 2162   2.189  -2.118   2.716 -0.0112 -2.2470  0.5183
   85ST     H1H 2163   2.351  -2.092   2.779  0.4991 -0.4195 -0.6423
   85ST     C1I 2164   2.299  -2.307   2.766 -0.2097  0.2143  0.5489
   85ST     H1J 2165   2.383  -2.333   2.831  0.4106 -1.9656 -1.0567
   85ST     H1K 2166   2.347  -2.298   2.668  0.3930  2.1164  0.9938
   85ST     C1M 2167   2.173  -2.399   2.770 -0.3707 -0.3688 -0.3190
   85ST     H1N 2168   2.162  -2.460   2.680  1.6771  0.9952 -1.5492
   85ST     H1O 2169   2.081  -2.341   2.773  0.3774  0.9849 -2.4822
   85ST     C1P 2170   2.166  -2.492   2.884  0.0715  0.9737 -0.0322
   85ST     H1Q 2171   2.187  -2.442   2.978  1.0551  1.6542 -0.6048
   85ST     H1R 2172   2.067  -2.536   2.900  1.3779 -2.6954 -1.5710
   85ST     C1S 2173   2.275  -2.598   2.862  1.3703 -0.2032  0.2862
   85ST     H1T 2174   2.268  -2.688   2.922  3.1921 -0.7888 -0.3323
   85ST     H1U 2175   2.378  -2.560   2.856  1.6821 -1.1747 -0.7493
   85ST     H1V 2176   2.260  -2.631   2.759 -1.1343 -1.4364  1.0149
   86EH     H00 2177   1.729  -0.976   2.367 -3.5094 -1.3818 -1.1919
   86EH     C01 2178   1.733  -0.944   2.263  0.0063  0.6717 -0.5131
   86EH     H02 2179   1.779  -1.029   2.213 -1.3913  0.8812 -2.2146
   86EH     H03 2180   1.631  -0.947   2.225  0.0974  0.2668 -0.7295
   86EH     C04 2181   1.821  -0.820   2.233  0.2396 -0.2306  0.2863
   86EH     C05 2182   1.788  -0.703   2.295  0.0231  0.0558  0.7326
   86EH     H06 2183   1.846  -0.615   2.269  0.1825 -0.8105 -1.9908
   86EH     H07 2184   1.768  -0.713   2.401  1.9190  1.1225  1.2069
   86EH     C08 2185   1.876  -0.814   2.096  0.5897 -0.0677  0.2057
   86EH     O09 2186   1.948  -0.720   2.051 -0.2822  0.5240  0.1754
   86EH     O0A 2187   1.825  -0.909   2.018  0.0119 -0.6432  0.1931
   86EH     C0B 2188   1.849  -0.913   1.884  0.1573  0.8125  0.1621
   86EH     H0C 2189   1.955  -0.893   1.869 -0.0085  1.5206 -0.1008
   86EH     H0D 2190   1.784  -0.841   1.833  0.2375  1.9306  1.6011
   86EH     C0E 2191   1.827  -1.059   1.821  0.2381 -0.1203 -0.2451
   86EH     H0F 2192   1.832  -1.044   1.713  0.3855 -2.8954 -0.6579
   86EH     C0G 2193   1.954  -1.149   1.849  0.0230  0.0180 -0.6032
   86EH     H0H 2194   2.037  -1.100   1.798  0.0902 -0.4384 -0.9325
   86EH     H0I 2195   1.929  -1.238   1.790 -1.4340 -0.1385  0.2059
   86EH     C0J 2196   1.993  -1.175   1.998 -0.0585 -0.2681  0.0115
   86EH     H0K 2197   1.960  -1.277   2.019  0.3311 -0.7316 -1.5445
   86EH     H0M 2198   1.946  -1.108   2.070 -0.7804  0.8319 -1.4631
   86EH     H0N 2199   2.101  -1.162   2.008 -0.1667 -0.8450  2.0942
   86EH     C0O 2200   1.696  -1.124   1.858  0.9889  0.1394 -0.1481
   86EH     H0P 2201   1.702  -1.231   1.836 -2.0362 -0.2950  0.9918
   86EH     H0Q 2202   1.694  -1.125   1.966 -0.7048 -0.4412 -0.1786
   86EH     C0R 2203   1.571  -1.073   1.785  0.5354  0.2310  0.6083
   86EH     H0S 2204   1.568  -1.106   1.681 -0.8833  1.1856  0.3282
   86EH     H0T 2205   1.571  -0.964   1.776 -2.4117  0.1860 -0.4939
   86EH     C0U 2206   1.430  -1.108   1.842  0.5976  0.0641  0.0534
   86EH     H0V 2207   1.364  -1.063   1.768 -0.4697  0.8049  1.4294
   86EH     H0W 2208   1.411  -1.215   1.830  1.4828 -0.1829  0.8230
   86EH     C0X 2209   1.400  -1.031   1.970 -0.0036 -0.7148 -0.6306
   86EH     H0Y 2210   1.302  -1.048   2.014  0.7163 -0.5163  1.0873
   86EH     H0Z 2211   1.417  -0.926   1.946  1.0000 -1.1160 -1.7163
   86EH     H10 2212   1.473  -1.060   2.046 -1.7646  0.8464  1.7202
   87EH     H00 2213   1.514  -0.644   2.079 -0.3787  0.1095  0.9627
   87EH     C01 2214   1.607  -0.679   2.125 -0.0967  0.1131  0.3992
   87EH     H02 2215   1.621  -0.781   2.088  1.7116  1.1837 -2.0410
   87EH     H03 2216   1.687  -0.622   2.077 -0.6966  0.5785 -0.0565
   87EH     C04 2217   1.637  -0.646   2.270 -0.1003  0.2258  0.4889
   87EH     C05 2218   1.560  -0.711   2.370 -0.3994 -0.2151  0.2593
   87EH     H06 2219   1.528  -0.810   2.340 -1.3711 -0.0003  0.5742
   87EH     H07 2220   1.584  -0.681   2.471  2.4824  0.5962 -0.5920
   87EH     C08 2221   1.682  -0.508   2.301  0.2642  0.5139 -0.6856
   87EH     O09 2222   1.730  -0.473   2.410 -0.3165  0.3828 -0.7864
   87EH     O0A 2223   1.652  -0.426   2.200 -0.6527  0.4275  0.3171
   87EH     C0B 2224   1.689  -0.293   2.204 -0.4164  0.5058  0.0379
   87EH     H0C 2225   1.788  -0.274   2.161 -1.0883  3.4498 -0.2854
   87EH     H0D 2226   1.687  -0.259   2.307 -1.8890 -0.3028  0.2883
   87EH     C0E 2227   1.589  -0.211   2.111 -0.3157 -0.0727  1.0541
   87EH     H0F 2228   1.486  -0.234   2.140  0.0477 -2.1299  0.7659
   87EH     C0G 2229   1.598  -0.056   2.117 -0.4368 -0.1422 -0.0354
   87EH     H0H 2230   1.531  -0.006   2.047 -0.8255  0.7627  0.9718
   87EH     H0I 2231   1.703  -0.030   2.098 -0.6341  0.7732  0.0977
   87EH     C0J 2232   1.555   0.012   2.250  1.2780 -0.2814  0.4101
   87EH     H0K 2233   1.447  -0.003   2.259  1.4155  0.4309  3.9466
   87EH     H0M 2234   1.582   0.117   2.253 -1.2728  0.4513 -0.5311
   87EH     H0N 2235   1.610  -0.040   2.328  0.2485  0.2637  1.5141
   87EH     C0O 2236   1.605  -0.262   1.965  0.3949  0.6711 -0.0573
   87EH     H0P 2237   1.676  -0.197   1.914  1.8631 -0.0039  1.0628
   87EH     H0Q 2238   1.641  -0.364   1.973  0.2554  0.6746  0.6798
   87EH     C0R 2239   1.486  -0.253   1.874  0.2182  0.3218  0.3886
   87EH     H0S 2240   1.453  -0.149   1.864 -1.2680 -0.0276  1.5162
   87EH     H0T 2241   1.405  -0.318   1.907  0.7244 -0.3975  0.2234
   87EH     C0U 2242   1.512  -0.304   1.735 -0.2417 -0.8305 -0.3382
   87EH     H0V 2243   1.585  -0.239   1.687 -1.4682 -0.2650 -1.4536
   87EH     H0W 2244   1.551  -0.406   1.733 -2.6248 -1.8352  2.0512
   87EH     C0X 2245   1.388  -0.305   1.656  0.3205  1.0850 -0.3605
   87EH     H0Y 2246   1.346  -0.205   1.645 -0.3756  0.7178 -1.0121
   87EH     H0Z 2247   1.311  -0.367   1.702  2.4233 -1.3261  0.0737
   87EH     H10 2248   1.414  -0.346   1.559  1.1463 -0.3593  0.4501
   88EH     H00 2249   1.231  -0.652   2.261 -0.5182  0.9501 -3.5620
   88EH     C01 2250   1.340  -0.640   2.258 -0.2007 -0.4464  0.3033
   88EH     H02 2251   1.358  -0.722   2.189  1.1765  0.7250 -0.7567
   88EH     H03 2252   1.366  -0.548   2.206 -0.7827 -0.4112  0.0736
   88EH     C04 2253   1.403  -0.658   2.394 -0.0524 -0.9631  0.4232
   88EH     C05 2254   1.422  -0.550   2.485  0.6407  0.1488 -0.1406
   88EH     H06 2255   1.481  -0.467   2.448  3.3290 -1.8256 -0.4122
   88EH     H07 2256   1.448  -0.575   2.587  2.4726 -1.3823 -0.9665
   88EH     C08 2257   1.361  -0.789   2.446 -0.3451  0.6975  0.5580
   88EH     O09 2258   1.296  -0.873   2.390 -0.0222  0.4895 -0.1350
   88EH     O0A 2259   1.402  -0.805   2.571 -0.1680 -0.3620 -0.7211
   88EH     C0B 2260   1.417  -0.930   2.635  0.8391  0.3220  0.0511
   88EH     H0C 2261   1.480  -0.990   2.569  0.2667 -0.1170 -0.1010
   88EH     H0D 2262   1.321  -0.982   2.637  1.1293 -0.2402 -0.2390
   88EH     C0E 2263   1.486  -0.919   2.768  0.0233 -0.0685 -0.7171
   88EH     H0F 2264   1.435  -0.849   2.834  4.0812  0.4458  2.0795
   88EH     C0G 2265   1.468  -1.059   2.839 -0.2837  0.0414 -0.5436
   88EH     H0H 2266   1.555  -1.123   2.825  0.4956  0.9328  0.1560
   88EH     H0I 2267   1.391  -1.120   2.792 -0.4220 -0.7580  0.6929
   88EH     C0J 2268   1.424  -1.042   2.986 -0.3104 -0.3275  0.1140
   88EH     H0K 2269   1.430  -1.135   3.043 -1.5793  0.5912  1.7772
   88EH     H0M 2270   1.324  -1.004   3.006  0.2540  1.1673  0.1401
   88EH     H0N 2271   1.487  -0.969   3.036  0.2890  0.1546 -1.3102
   88EH     C0O 2272   1.633  -0.875   2.746 -0.5088  0.4158  0.0053
   88EH     H0P 2273   1.688  -0.958   2.702  0.7642  1.3300 -0.1659
   88EH     H0Q 2274   1.647  -0.804   2.665  0.5256  0.5133  0.2639
   88EH     C0R 2275   1.699  -0.818   2.871 -0.3123 -0.1630 -0.1876
   88EH     H0S 2276   1.808  -0.819   2.864 -0.2452 -0.3882  0.7614
   88EH     H0T 2277   1.665  -0.874   2.958  1.6783 -0.4279  0.4441
   88EH     C0U 2278   1.672  -0.667   2.897  0.5902 -0.2896 -0.6667
   88EH     H0V 2279   1.564  -0.653   2.904  1.0389  2.0898  1.8876
   88EH     H0W 2280   1.713  -0.655   2.997 -0.8435 -2.4804  0.2302
   88EH     C0X 2281   1.723  -0.568   2.789 -0.1438 -0.4125 -0.2292
   88EH     H0Y 2282   1.635  -0.575   2.724  1.2397 -1.2168 -2.0414
   88EH     H0Z 2283   1.816  -0.593   2.739  0.3933 -0.5876  0.8446
   88EH     H10 2284   1.722  -0.462   2.815  0.1088  0.2093 -2.6674
   89LA     H00 2285   1.134  -0.602   2.473 -0.3804  0.0540  0.6122
   89LA     C01 2286   1.184  -0.566   2.562 -0.2072  0.6797  0.2662
   89LA     H02 2287   1.102  -0.529   2.623 -1.1888 -0.3047 -0.4568
   89LA     H03 2288   1.218  -0.648   2.625 -0.5056 -0.0345 -0.5002
   89LA     C04 2289   1.294  -0.461   2.523 -0.0072  0.2040 -0.1902
   89LA     C05 2290   1.264  -0.385   2.411 -0.4600  0.1996 -0.5017
   89LA     H06 2291   1.207  -0.438   2.336  0.7919 -2.9235  0.6880
   89LA     H07 2292   1.350  -0.330   2.375  0.3613  0.8503  2.3340
   89LA     C08 2293   1.357  -0.397   2.634 -0.5853  0.1763  0.0280
   89LA     O09 2294   1.438  -0.306   2.625 -0.1349  0.2999 -0.2509
   89LA     O0A 2295   1.319  -0.446   2.747 -0.0337 -0.8749 -0.2150
   89LA     C0B 2296   1.379  -0.395   2.858  0.2985  0.2363 -0.1201
   89LA     H0C 2297   1.391  -0.287   2.856 -1.7895  0.4994  0.2861
   89LA     H0D 2298   1.476  -0.438   2.883  1.0864  2.1000  0.1011
   89LA     C0E 2299   1.267  -0.426   2.958 -0.0707 -1.1009  0.4131
   89LA     H0F 2300   1.272  -0.362   3.046 -3.8306  0.6382 -0.5071
   89LA     H0G 2301   1.174  -0.390   2.913  0.1221 -2.6370 -1.2702
   89LA     C0H 2302   1.245  -0.576   2.989  0.8944 -0.1219  0.1096
   89LA     H0I 2303   1.228  -0.623   2.892 -0.2868  1.3994 -0.4279
   89LA     H0J 2304   1.339  -0.622   3.020  0.9222  0.0173  0.2296
   89LA     C0K 2305   1.129  -0.610   3.085  0.1996  0.0908  0.4357
   89LA     H0M 2306   1.170  -0.610   3.186  0.8854 -0.5204  0.1641
   89LA     H0N 2307   1.050  -0.538   3.067  1.6364  1.7223  0.5399
   89LA     C0O 2308   1.082  -0.759   3.071  0.4786  0.6954 -0.5481
   89LA     H0P 2309   1.161  -0.835   3.065  1.7642  2.1271 -2.5809
   89LA     H0Q 2310   1.017  -0.781   3.155  3.1022  1.9425  1.8856
   89LA     C0R 2311   0.994  -0.773   2.946 -0.3612  0.2269  0.5119
   89LA     H0S 2312   0.916  -0.697   2.945 -2.4547 -1.8625 -0.2141
   89LA     H0T 2313   1.055  -0.745   2.860 -0.5039 -1.1930 -0.0741
   89LA     C0U 2314   0.932  -0.912   2.919 -0.9107 -0.3207  0.6148
   89LA     H0V 2315   1.009  -0.987   2.936  1.0216  1.2477 -1.0385
   89LA     H0W 2316   0.857  -0.921   2.997  0.1735 -0.7552  1.6234
   89LA     C0X 2317   0.873  -0.925   2.776  0.9101 -0.1183 -0.7763
   89LA     H0Y 2318   0.948  -0.924   2.697  0.9640  1.0185 -0.7222
   89LA     H0Z 2319   0.840  -1.029   2.769 -0.3457  0.2266 -0.0732
   89LA     C10 2320   0.766  -0.817   2.754 -0.5328  0.0209  0.4207
   89LA     H11 2321   0.827  -0.727   2.741  1.7281 -1.3370  1.2177
   89LA     H12 2322   0.699  -0.814   2.840  0.8639 -1.3640  1.5965
   89LA     C13 2323   0.687  -0.838   2.624  0.2475 -0.1290  0.1062
   89LA     H14 2324   0.601  -0.900   2.648 -0.8506  1.3734  0.1398
   89LA     H15 2325   0.739  -0.881   2.538  1.3771  0.7477  0.3276
   89LA     C16 2326   0.653  -0.696   2.569  0.0200  0.3186  0.5312
   89LA     H17 2327   0.593  -0.705   2.478 -0.1622  0.5335  0.6279
   89LA     H18 2328   0.742  -0.642   2.539 -1.6356  1.0513 -3.4426
   89LA     C19 2329   0.569  -0.626   2.683 -0.4445  0.2144 -0.4463
   89LA     H1A 2330   0.536  -0.537   2.631 -0.2497 -0.0962 -1.1068
   89LA     H1B 2331   0.614  -0.589   2.775  0.8349 -2.4259  0.0424
   89LA     H1C 2332   0.486  -0.693   2.705  1.0848 -1.3206  0.8118
   90EH     H00 2333   1.267  -0.133   2.562 -0.1329 -4.4154  1.3421
   90EH     C01 2334   1.257  -0.145   2.454  0.3367  0.1092  0.7017
   90EH     H02 2335   1.213  -0.055   2.412  1.0281 -0.5736 -1.5721
   90EH     H03 2336   1.352  -0.132   2.404  0.0750  0.0332  0.1869
   90EH     C04 2337   1.164  -0.258   2.412  0.4154 -0.1965  0.2618
   90EH     C05 2338   1.063  -0.295   2.497 -0.4379 -0.3577 -0.2128
   90EH     H06 2339   1.006  -0.368   2.442 -0.7821  1.9540 -3.0763
   90EH     H07 2340   1.094  -0.303   2.600 -1.0257  0.8285  0.0661
   90EH     C08 2341   1.146  -0.266   2.263 -0.0447 -0.9132 -0.8957
   90EH     O09 2342   1.220  -0.201   2.189 -0.0412 -0.4482  0.3246
   90EH     O0A 2343   1.044  -0.345   2.219  0.7517  0.1993 -0.0143
   90EH     C0B 2344   0.990  -0.322   2.089 -0.5663  0.3046  0.2872
   90EH     H0C 2345   1.070  -0.332   2.015 -0.0591 -1.3876  1.0324
   90EH     H0D 2346   0.948  -0.222   2.093 -0.7527  0.1755  2.2500
   90EH     C0E 2347   0.886  -0.442   2.070  0.3952  0.4675 -0.4271
   90EH     H0F 2348   0.821  -0.434   2.157 -2.0250  1.6468 -2.2891
   90EH     C0G 2349   0.801  -0.421   1.942 -0.3316  0.3226 -0.5705
   90EH     H0H 2350   0.726  -0.347   1.969 -1.8226 -1.1820 -0.4843
   90EH     H0I 2351   0.731  -0.500   1.915  0.2736  0.0778 -1.4461
   90EH     C0J 2352   0.880  -0.380   1.824 -0.0248 -0.5622  0.0157
   90EH     H0K 2353   0.957  -0.452   1.796  0.4003 -0.3942  0.7403
   90EH     H0M 2354   0.927  -0.282   1.832 -2.3238  0.4595  1.5467
   90EH     H0N 2355   0.811  -0.372   1.739 -1.5915  0.0995  1.3121
   90EH     C0O 2356   0.959  -0.575   2.084  1.0359 -0.3765  0.9058
   90EH     H0P 2357   1.031  -0.599   2.005  0.8411  0.0932  0.5885
   90EH     H0Q 2358   1.027  -0.575   2.169  1.6931 -0.0050  0.3879
   90EH     C0R 2359   0.868  -0.693   2.115  0.4251 -0.2616  0.0163
   90EH     H0S 2360   0.795  -0.719   2.038  0.5116 -0.3897 -0.0222
   90EH     H0T 2361   0.804  -0.665   2.199  0.2047  0.6409 -0.4406
   90EH     C0U 2362   0.947  -0.820   2.149 -0.2694 -0.6727  0.2801
   90EH     H0V 2363   1.019  -0.837   2.069 -2.3601 -1.1796 -1.5466
   90EH     H0W 2364   1.006  -0.798   2.238  0.6728 -1.9715 -0.0044
   90EH     C0X 2365   0.877  -0.951   2.164 -0.3131  0.1239  0.2188
   90EH     H0Y 2366   0.819  -0.981   2.077 -0.8519  0.0393  0.6033
   90EH     H0Z 2367   0.814  -0.942   2.252  1.8273  0.0542  1.7916
   90EH     H10 2368   0.948  -1.030   2.188  1.9246  1.6767 -1.1296
   91EH     H00 2369   1.078  -0.004   2.576  1.4817 -0.2299  1.4269
   91EH     C01 2370   1.015  -0.081   2.619 -0.1177  0.2502 -0.0230
   91EH     H02 2371   1.084  -0.127   2.690  0.8738 -0.9283 -1.7064
   91EH     H03 2372   0.946  -0.013   2.668 -0.3513  0.6291 -0.8694
   91EH     C04 2373   0.946  -0.187   2.533  0.0763 -0.3552 -0.2362
   91EH     C05 2374   0.903  -0.147   2.408  0.4704 -0.1608  0.1261
   91EH     H06 2375   0.846  -0.222   2.354 -0.1943  1.3742 -1.3516
   91EH     H07 2376   0.976  -0.099   2.344  0.6135 -1.0805 -0.4222
   91EH     C08 2377   0.872  -0.288   2.612  1.0483 -0.1218  0.0109
   91EH     O09 2378   0.817  -0.388   2.560  0.0675 -0.2038 -0.0089
   91EH     O0A 2379   0.863  -0.256   2.737 -0.1749 -0.3145 -0.6810
   91EH     C0B 2380   0.794  -0.335   2.828  0.0274 -0.5008 -0.4324
   91EH     H0C 2381   0.850  -0.429   2.827 -2.1116 -1.7966 -0.0426
   91EH     H0D 2382   0.708  -0.376   2.776 -1.0503  0.0453  0.8902
   91EH     C0E 2383   0.768  -0.252   2.960  0.4096  0.2758 -0.3480
   91EH     H0F 2384   0.718  -0.160   2.931 -1.2622 -1.0513 -1.7733
   91EH     C0G 2385   0.901  -0.227   3.036  0.0705 -0.4663 -0.9056
   91EH     H0H 2386   0.983  -0.209   2.967  1.2265 -1.4045  0.2158
   91EH     H0I 2387   0.933  -0.322   3.079  1.7531  0.6295  0.2955
   91EH     C0J 2388   0.882  -0.112   3.141  0.8696  0.1789 -0.0689
   91EH     H0K 2389   0.831  -0.027   3.094 -0.6641 -0.9483 -0.4871
   91EH     H0M 2390   0.836  -0.143   3.235 -1.2219 -0.5266 -1.3020
   91EH     H0N 2391   0.970  -0.068   3.188  0.6368 -0.8046  1.3199
   91EH     C0O 2392   0.658  -0.329   3.047 -0.7591 -0.9431 -0.3435
   91EH     H0P 2393   0.698  -0.427   3.074  1.5897 -0.6213 -2.3776
   91EH     H0Q 2394   0.641  -0.283   3.144  0.2413  1.1702 -1.1345
   91EH     C0R 2395   0.519  -0.342   2.983  0.2064 -0.1437  0.5033
   91EH     H0S 2396   0.506  -0.365   2.877 -1.1318 -1.4076  0.9236
   91EH     H0T 2397   0.471  -0.245   2.996  1.1060  0.6805 -1.9769
   91EH     C0U 2398   0.432  -0.451   3.058  0.0041 -0.3838 -0.0845
   91EH     H0V 2399   0.482  -0.547   3.050 -0.4484 -0.5917 -0.4240
   91EH     H0W 2400   0.428  -0.414   3.161  0.8261  1.1144 -0.5698
   91EH     C0X 2401   0.287  -0.466   3.015 -0.6912  0.5625  0.4983
   91EH     H0Y 2402   0.233  -0.546   3.065  0.5392 -0.7636 -0.2370
   91EH     H0Z 2403   0.276  -0.483   2.908 -2.8993 -0.6795  0.8997
   91EH     H10 2404   0.236  -0.373   3.040  0.1080  0.7959  1.2694
   92ST     H00 2405   0.820   0.174   2.356 -1.5722  0.5106  0.5455
   92ST     C01 2406   0.867   0.102   2.423 -0.3972  0.3585 -0.4277
   92ST     H02 2407   0.972   0.104   2.392 -0.4443  1.3859 -0.5142
   92ST     H03 2408   0.874   0.148   2.522  0.5325 -2.8776  1.1034
   92ST     C04 2409   0.793  -0.033   2.404 -0.3428 -0.0164  0.2973
   92ST     C05 2410   0.698  -0.071   2.494  0.6489  0.7239 -0.6270
   92ST     H06 2411   0.638  -0.152   2.455  1.3037 -0.9610  1.7894
   92ST     H07 2412   0.731  -0.074   2.596 -1.5737 -2.0263  0.0735
   92ST     C08 2413   0.761  -0.057   2.260  0.6193 -0.1353  0.3645
   92ST     O09 2414   0.671  -0.130   2.212 -0.2131  0.5250  0.2046
   92ST     O0A 2415   0.844   0.004   2.178  0.1367 -0.4307  0.5882
   92ST     C0B 2416   0.825   0.009   2.037  0.5837 -0.1553  0.1283
   92ST     H0C 2417   0.817  -0.088   1.987  1.1156 -0.5471  0.7967
   92ST     H0D 2418   0.731   0.064   2.032 -0.4305 -1.7829  1.0157
   92ST     C0E 2419   0.932   0.096   1.977  0.3619  0.7741  0.1647
   92ST     H0F 2420   0.908   0.200   1.996  0.8429  1.0685 -0.8508
   92ST     H0G 2421   0.918   0.078   1.871 -0.1264  1.3588  0.1279
   92ST     C0H 2422   1.074   0.052   2.021 -0.0584  0.1900 -0.0419
   92ST     H0I 2423   1.095  -0.046   1.980 -2.9733  0.8947 -3.4860
   92ST     H0J 2424   1.080   0.047   2.130  0.7949 -0.6261 -0.1206
   92ST     C0K 2425   1.179   0.140   1.978 -0.8665  0.5668  0.6789
   92ST     H0M 2426   1.274   0.086   1.983 -0.6937  0.9173  1.2346
   92ST     H0N 2427   1.177   0.191   1.881 -3.0030  0.4246  0.6335
   92ST     C0O 2428   1.203   0.252   2.080  0.0328  0.3948  0.4546
   92ST     H0P 2429   1.214   0.207   2.178  0.4315  1.8518  1.0836
   92ST     H0Q 2430   1.114   0.314   2.084 -0.8882 -0.9515  1.5305
   92ST     C0R 2431   1.325   0.331   2.038 -0.0386 -0.6747 -0.0467
   92ST     H0S 2432   1.317   0.350   1.931  1.2025 -0.2409 -0.0659
   92ST     H0T 2433   1.415   0.270   2.046 -0.6970 -1.4544  1.4585
   92ST     C0U 2434   1.351   0.461   2.116  0.1808 -0.0245 -0.0789
   92ST     H0V 2435   1.347   0.441   2.223  0.9893 -2.4432 -0.4769
   92ST     H0W 2436   1.277   0.537   2.090  0.3575 -0.3488 -1.5528
   92ST     C0X 2437   1.486   0.524   2.083  0.2169  0.0782 -0.2231
   92ST     H0Y 2438   1.571   0.459   2.102  0.3786  0.8891  1.9642
   92ST     H0Z 2439   1.499   0.546   1.977 -0.4242  2.2838  0.1254
   92ST     C10 2440   1.505   0.659   2.161  0.2307  0.0203  0.8760
   92ST     H11 2441   1.485   0.652   2.268 -1.8838 -0.0487  0.4989
   92ST     H12 2442   1.608   0.694   2.159  0.2258  0.1164  2.0761
   92ST     C13 2443   1.430   0.778   2.091 -0.3005  0.3122  0.3207
   92ST     H14 2444   1.414   0.754   1.986  0.3467 -0.4613  0.3962
   92ST     H15 2445   1.330   0.787   2.133 -2.1165 -0.8510 -3.5343
   92ST     C16 2446   1.494   0.924   2.089  0.5026 -0.1495 -0.2733
   92ST     H17 2447   1.524   0.964   2.186  0.7215 -0.2241 -0.3077
   92ST     H18 2448   1.584   0.923   2.027  0.9793 -0.7825  0.4228
   92ST     C19 2449   1.399   1.027   2.021 -0.1787  0.5483 -0.1968
   92ST     H1A 2450   1.372   0.995   1.920 -0.2697 -0.0041  0.0055
   92ST     H1B 2451   1.319   1.037   2.093 -1.4984 -3.2905 -1.0498
   92ST     C1C 2452   1.461   1.173   2.005  0.9590 -0.0786  0.0111
   92ST     H1D 2453   1.489   1.214   2.102 -1.3657  1.7809 -0.0667
   92ST     H1E 2454   1.548   1.164   1.939  0.5831 -0.1643 -0.4761
   92ST     C1F 2455   1.358   1.269   1.941 -0.2131 -0.1870 -0.2400
   92ST     H1G 2456   1.261   1.244   1.983 -0.6376 -2.0438 -2.2694
   92ST     H1H 2457   1.383   1.371   1.970 -0.6953 -0.9636  3.0387
   92ST     C1I 2458   1.348   1.254   1.785 -0.0886  0.4082  1.1379
   92ST     H1J 2459   1.340   1.152   1.749  0.9812  0.8174 -0.3167
   92ST     H1K 2460   1.431   1.307   1.738 -1.0668  0.7385 -0.2592
   92ST     C1M 2461   1.217   1.331   1.745 -0.0498 -0.1802  0.0468
   92ST     H1N 2462   1.237   1.436   1.769  1.0173 -0.6675  1.3642
   92ST     H1O 2463   1.136   1.303   1.813 -1.7390  0.7184 -1.5656
   92ST     C1P 2464   1.167   1.318   1.596  0.7287  0.8899  1.3182
   92ST     H1Q 2465   1.250   1.358   1.538  0.0524 -1.4550 -1.3163
   92ST     H1R 2466   1.142   1.215   1.573 -1.5010  2.0605 -1.8813
   92ST     C1S 2467   1.038   1.391   1.565 -0.3339  0.5631 -0.1797
   92ST     H1T 2468   1.044   1.500   1.560  1.0516  0.7359  3.5867
   92ST     H1U 2469   0.954   1.378   1.633 -0.4803  2.1213 -0.0401
   92ST     H1V 2470   1.006   1.346   1.471 -1.7323 -1.0812  1.0544
   93EH     H00 2471   0.686   0.217   2.573  0.7274 -0.3491  0.1436
   93EH     C01 2472   0.653   0.134   2.636 -0.1614  0.4682  0.7644
   93EH     H02 2473   0.741   0.100   2.689  1.0746  0.5635 -1.1982
   93EH     H03 2474   0.589   0.183   2.710 -0.8441  1.6753 -0.5950
   93EH     C04 2475   0.581   0.029   2.540 -1.3369  0.7157  0.4412
   93EH     C05 2476   0.534   0.063   2.417  0.0976  0.4329 -0.3560
   93EH     H06 2477   0.485  -0.024   2.376  0.1775 -0.6913  1.9033
   93EH     H07 2478   0.606   0.111   2.352  0.3547  1.1928  0.4784
   93EH     C08 2479   0.516  -0.068   2.637 -0.5416 -0.1248  0.5316
   93EH     O09 2480   0.564  -0.111   2.743 -0.0006 -0.2421 -0.0649
   93EH     O0A 2481   0.398  -0.098   2.604 -0.5818  0.3953 -0.2331
   93EH     C0B 2482   0.321  -0.171   2.696 -0.3085 -0.1280 -0.1084
   93EH     H0C 2483   0.324  -0.105   2.783  1.4578 -0.4778  0.1206
   93EH     H0D 2484   0.365  -0.268   2.721 -1.3480 -1.2673 -2.5752
   93EH     C0E 2485   0.177  -0.186   2.642  0.3064 -0.1228  0.5060
   93EH     H0F 2486   0.133  -0.091   2.611 -0.4203 -0.2888  1.0152
   93EH     C0G 2487   0.168  -0.289   2.524  0.3145  0.3180  0.1702
   93EH     H0H 2488   0.223  -0.269   2.432 -1.0536  2.7944 -0.1599
   93EH     H0I 2489   0.067  -0.297   2.486  0.8686  0.6997 -1.4186
   93EH     C0J 2490   0.217  -0.431   2.568  0.0748 -0.0866 -0.0373
   93EH     H0K 2491   0.326  -0.429   2.567  0.0845 -0.8120 -0.3968
   93EH     H0M 2492   0.201  -0.457   2.673 -1.5016 -1.3193 -0.5586
   93EH     H0N 2493   0.172  -0.513   2.512 -0.7277  0.1709  0.2193
   93EH     C0O 2494   0.080  -0.217   2.753  0.1095 -0.8684  0.2539
   93EH     H0P 2495  -0.012  -0.254   2.708 -1.2889  1.7512  0.8647
   93EH     H0Q 2496   0.117  -0.301   2.812  0.9756  0.6415  1.8957
   93EH     C0R 2497   0.014  -0.109   2.840 -0.4113  0.0565  0.7355
   93EH     H0S 2498  -0.005  -0.025   2.774 -0.5360  2.9603  4.2681
   93EH     H0T 2499   0.097  -0.071   2.901  0.8986  0.5582 -1.3227
   93EH     C0U 2500  -0.113  -0.148   2.924 -0.2144  0.4359  0.1644
   93EH     H0V 2501  -0.140  -0.054   2.972  2.1276  1.2869 -0.1302
   93EH     H0W 2502  -0.192  -0.185   2.858  0.9999 -2.9296  0.4886
   93EH     C0X 2503  -0.095  -0.245   3.037 -0.2634  0.9470 -0.0656
   93EH     H0Y 2504  -0.188  -0.262   3.090 -0.6721 -1.3126 -1.4279
   93EH     H0Z 2505  -0.031  -0.201   3.114  0.0686  1.7059 -0.7660
   93EH     H10 2506  -0.063  -0.342   2.999  0.4639  0.5632  1.4982
   94ST     H00 2507   0.239   0.023   2.374 -0.4791 -0.9973 -0.7967
   94ST     C01 2508   0.302   0.090   2.318 -0.7066 -0.2182 -0.1284
   94ST     H02 2509   0.343   0.050   2.225 -0.5377 -0.1091 -0.1034
   94ST     H03 2510   0.233   0.152   2.260  0.2778  0.3834 -0.6872
   94ST     C04 2511   0.411   0.162   2.401 -0.0337  0.0931 -0.1514
   94ST     C05 2512   0.384   0.200   2.532  0.3953  0.5370  0.2209
   94ST     H06 2513   0.460   0.263   2.574  0.6214 -0.3764  1.2206
   94ST     H07 2514   0.343   0.120   2.592 -0.5134 -0.5208 -1.7312
   94ST     C08 2515   0.489   0.250   2.316 -0.6127  0.3534 -1.2007
   94ST     O09 2516   0.473   0.260   2.196 -0.1162 -0.0494 -0.3067
   94ST     O0A 2517   0.586   0.324   2.384 -0.3893 -0.2097 -0.3553
   94ST     C0B 2518   0.645   0.446   2.321  0.4825 -0.4943 -0.0101
   94ST     H0C 2519   0.715   0.426   2.239  2.6664  3.8115  0.6653
   94ST     H0D 2520   0.566   0.510   2.283  0.9321  0.2494  0.3062
   94ST     C0E 2521   0.717   0.538   2.411  0.2355  0.2168 -0.3298
   94ST     H0F 2522   0.742   0.632   2.362 -3.4471  2.1652  1.3299
   94ST     H0G 2523   0.809   0.485   2.436 -0.2084 -0.6793 -0.5781
   94ST     C0H 2524   0.639   0.565   2.546 -0.3259 -0.3798 -0.3754
   94ST     H0I 2525   0.586   0.472   2.567 -3.0684  1.1926 -0.2388
   94ST     H0J 2526   0.564   0.643   2.540 -0.9886 -1.0169 -0.4501
   94ST     C0K 2527   0.737   0.592   2.660  0.0420  0.2307 -0.1779
   94ST     H0M 2528   0.680   0.584   2.753 -1.1189  0.8429 -0.8232
   94ST     H0N 2529   0.805   0.509   2.680 -0.4999  0.3029  2.1744
   94ST     C0O 2530   0.804   0.725   2.679  0.2324 -0.4526  0.1006
   94ST     H0P 2531   0.733   0.807   2.684  0.2919 -0.4690  1.5350
   94ST     H0Q 2532   0.862   0.746   2.590  1.8786 -0.3161  1.1822
   94ST     C0R 2533   0.900   0.712   2.808 -0.6418 -0.1449 -0.0565
   94ST     H0S 2534   0.965   0.628   2.783 -0.0757  0.7615 -1.7375
   94ST     H0T 2535   0.849   0.695   2.903  0.2701 -1.9496  0.1408
   94ST     C0U 2536   0.998   0.825   2.834 -0.4790 -0.4443  0.7534
   94ST     H0V 2537   1.062   0.787   2.914 -2.2619 -0.5316  2.1515
   94ST     H0W 2538   0.950   0.917   2.868  0.5987  0.5738 -0.4064
   94ST     C0X 2539   1.082   0.885   2.719  0.5379 -0.6492  0.1560
   94ST     H0Y 2540   1.019   0.944   2.652  0.3769 -1.3182 -0.2820
   94ST     H0Z 2541   1.152   0.961   2.755 -2.0118  1.7558  0.3063
   94ST     C10 2542   1.150   0.771   2.644  0.5573  0.0622 -0.1337
   94ST     H11 2543   1.207   0.705   2.710 -1.3361 -1.2266  0.2161
   94ST     H12 2544   1.081   0.709   2.587  0.0524 -0.6173  1.2038
   94ST     C13 2545   1.256   0.830   2.547  0.4737  0.6580  0.6434
   94ST     H14 2546   1.315   0.903   2.603  2.1220  1.3762 -1.8995
   94ST     H15 2547   1.336   0.758   2.528  1.5627  1.7044  1.1735
   94ST     C16 2548   1.198   0.889   2.418  0.1243 -0.2893  0.0277
   94ST     H17 2549   1.126   0.965   2.448 -0.9613 -1.4300  0.3492
   94ST     H18 2550   1.271   0.941   2.355  1.7296 -2.3229  0.1370
   94ST     C19 2551   1.124   0.779   2.340 -0.3460 -0.2090 -0.0916
   94ST     H1A 2552   1.184   0.691   2.316 -0.5702  0.1869 -2.2051
   94ST     H1B 2553   1.036   0.741   2.393 -1.0176 -0.6598 -1.4923
   94ST     C1C 2554   1.064   0.811   2.204 -0.1721  0.9081 -0.4400
   94ST     H1D 2555   0.989   0.889   2.214 -1.2891 -0.3619  1.4346
   94ST     H1E 2556   1.132   0.851   2.129 -0.4357 -0.4808 -1.4548
   94ST     C1F 2557   0.999   0.686   2.141 -0.3845  0.6592  0.7285
   94ST     H1G 2558   1.076   0.616   2.109 -0.7277 -0.4857  2.3278
   94ST     H1H 2559   0.923   0.646   2.208  0.2128  0.0289  1.0359
   94ST     C1I 2560   0.917   0.710   2.006  0.9386  0.0744  0.4365
   94ST     H1J 2561   0.970   0.768   1.931  0.0234 -0.8943 -0.9661
   94ST     H1K 2562   0.837   0.781   2.032  0.5059  0.3985 -1.7428
   94ST     C1M 2563   0.855   0.586   1.934 -0.0231 -0.2884 -0.0203
   94ST     H1N 2564   0.778   0.556   2.005  0.5343  0.2665  0.8266
   94ST     H1O 2565   0.925   0.504   1.918 -0.1486 -0.7135  1.5425
   94ST     C1P 2566   0.796   0.635   1.804 -0.0739  0.5026 -0.0246
   94ST     H1Q 2567   0.731   0.721   1.821 -0.2991 -0.1514  2.7361
   94ST     H1R 2568   0.872   0.675   1.737  0.4280 -1.3198 -0.5726
   94ST     C1S 2569   0.717   0.527   1.732 -0.3773  0.2404  0.2139
   94ST     H1T 2570   0.640   0.491   1.802 -2.0798 -2.6078 -2.9788
   94ST     H1U 2571   0.768   0.433   1.712  1.1292  0.5135  2.5759
   94ST     H1V 2572   0.667   0.569   1.645  0.4197 -3.2924 -2.0455
   95EH     H00 2573   0.107   0.180   2.446 -0.4876  0.6684  0.7570
   95EH     C01 2574   0.132   0.207   2.548 -0.1702  0.2612  0.7841
   95EH     H02 2575   0.061   0.268   2.603  0.9630  1.6091  0.7966
   95EH     H03 2576   0.134   0.112   2.602 -1.3040  0.8093  1.8207
   95EH     C04 2577   0.259   0.289   2.566 -0.6280 -0.7303 -0.6849
   95EH     C05 2578   0.281   0.394   2.483 -0.0035 -0.5605 -0.5142
   95EH     H06 2579   0.250   0.374   2.382 -0.4536 -1.4649 -0.1976
   95EH     H07 2580   0.379   0.438   2.493 -0.2188 -0.2646  0.3455
   95EH     C08 2581   0.304   0.294   2.710 -1.5614  0.0113  0.3360
   95EH     O09 2582   0.397   0.358   2.757 -0.6760 -0.1365 -0.1595
   95EH     O0A 2583   0.216   0.225   2.797  0.3344  0.4974  0.1297
   95EH     C0B 2584   0.243   0.236   2.941  1.0127  0.5695  0.0565
   95EH     H0C 2585   0.350   0.243   2.961  1.0514 -0.9597  0.4183
   95EH     H0D 2586   0.215   0.144   2.992  2.0883  0.5647  0.6526
   95EH     C0E 2587   0.162   0.351   2.998  0.1316 -0.6049  0.5879
   95EH     H0F 2588   0.209   0.441   2.960  2.2021 -1.0723  1.9783
   95EH     C0G 2589   0.009   0.337   2.955 -0.1530 -0.0783 -0.0807
   95EH     H0H 2590   0.005   0.339   2.846  0.4277  1.7009 -0.0916
   95EH     H0I 2591  -0.059   0.418   2.982 -1.5941 -1.1113 -0.5442
   95EH     C0J 2592  -0.066   0.210   2.999  0.0871  0.7459  0.2938
   95EH     H0K 2593  -0.162   0.203   2.948 -0.0548 -0.5582  0.7222
   95EH     H0M 2594  -0.079   0.191   3.105  3.3270 -2.0881  0.2696
   95EH     H0N 2595  -0.007   0.124   2.967 -0.3351  0.6711 -0.2965
   95EH     C0O 2596   0.170   0.353   3.152  0.9337  0.1717  0.2582
   95EH     H0P 2597   0.113   0.274   3.201  0.4741  0.9583  1.0085
   95EH     H0Q 2598   0.272   0.326   3.181  0.1802 -2.6571  0.4282
   95EH     C0R 2599   0.129   0.485   3.223 -0.0572  0.4180 -0.2268
   95EH     H0S 2600   0.023   0.500   3.204 -0.1934 -0.2105  0.0343
   95EH     H0T 2601   0.184   0.564   3.172  0.6113 -0.7624 -1.3781
   95EH     C0U 2602   0.168   0.490   3.373  0.4242 -0.3158 -0.7946
   95EH     H0V 2603   0.132   0.398   3.419  0.6519 -0.1638 -0.3078
   95EH     H0W 2604   0.277   0.485   3.373  0.5381  0.6279  2.8642
   95EH     C0X 2605   0.109   0.615   3.443 -0.4370 -0.6099 -0.0412
   95EH     H0Y 2606   0.000   0.617   3.434 -0.5786 -0.7129  1.5657
   95EH     H0Z 2607   0.147   0.708   3.402 -1.0798 -1.2480 -2.2028
   95EH     H10 2608   0.131   0.611   3.549  0.1855  1.1387 -0.1006
   96ST     H00 2609  -0.013   0.590   2.496 -0.2796 -0.4176 -0.7273
   96ST     C01 2610   0.044   0.498   2.510 -0.0526 -0.3053 -0.9157
   96ST     H02 2611   0.010   0.464   2.608 -1.0768  1.6373 -0.5779
   96ST     H03 2612   0.023   0.426   2.432  5.0594 -2.4746 -0.5190
   96ST     C04 2613   0.196   0.529   2.505 -0.1112 -0.4814  0.4891
   96ST     C05 2614   0.253   0.584   2.618 -0.4260 -0.1732 -0.2567
   96ST     H06 2615   0.359   0.602   2.607 -0.5886  0.1219 -1.5057
   96ST     H07 2616   0.217   0.531   2.704  0.5421 -0.9102 -0.2919
   96ST     C08 2617   0.244   0.580   2.377 -0.2104  1.1139 -0.1945
   96ST     O09 2618   0.355   0.627   2.351 -0.3833 -1.2585  0.1419
   96ST     O0A 2619   0.155   0.579   2.277 -0.0305  0.3169  0.3347
   96ST     C0B 2620   0.185   0.652   2.158 -0.4307  0.5186 -0.3045
   96ST     H0C 2621   0.199   0.757   2.185 -1.2587  0.8051 -0.9928
   96ST     H0D 2622   0.274   0.618   2.106  0.7635  0.7361  1.5558
   96ST     C0E 2623   0.069   0.632   2.064 -0.3199 -0.0104 -0.0386
   96ST     H0F 2624   0.064   0.526   2.042  1.6433 -0.6390  2.4378
   96ST     H0G 2625   0.080   0.692   1.974  0.0275  0.4311  0.2954
   96ST     C0H 2626  -0.062   0.676   2.132 -0.5059  0.1342 -0.1655
   96ST     H0I 2627  -0.070   0.782   2.155  3.4042  0.4060  0.4119
   96ST     H0J 2628  -0.066   0.629   2.231  2.0603 -0.2923 -0.2302
   96ST     C0K 2629  -0.191   0.626   2.062  0.6454 -0.0810  0.3511
   96ST     H0M 2630  -0.202   0.663   1.960  0.0240 -0.1942  0.3751
   96ST     H0N 2631  -0.191   0.517   2.063 -0.5093 -0.0874 -0.2680
   96ST     C0O 2632  -0.315   0.655   2.148  0.3620  0.2512 -0.0944
   96ST     H0P 2633  -0.311   0.632   2.254 -3.2055  1.6921  0.4317
   96ST     H0Q 2634  -0.382   0.573   2.121  0.1413  1.0799 -2.1929
   96ST     C0R 2635  -0.384   0.791   2.129 -0.1181 -0.5856  0.0667
   96ST     H0S 2636  -0.411   0.802   2.024  1.0074  0.7820 -0.1057
   96ST     H0T 2637  -0.311   0.865   2.162 -0.0565  0.1500 -1.6466
   96ST     C0U 2638  -0.525   0.800   2.198 -0.2235 -0.1804  0.1226
   96ST     H0V 2639  -0.525   0.777   2.305 -1.4553 -1.9731 -0.2197
   96ST     H0W 2640  -0.600   0.731   2.158 -0.5632  1.1049 -1.5333
   96ST     C0X 2641  -0.598   0.933   2.169 -0.6459  0.0812  0.0375
   96ST     H0Y 2642  -0.593   0.967   2.066 -1.7276  1.3340  0.3864
   96ST     H0Z 2643  -0.706   0.929   2.185 -1.1526  1.4931 -2.7515
   96ST     C10 2644  -0.545   1.044   2.255 -0.0116 -0.1448 -0.6037
   96ST     H11 2645  -0.547   1.015   2.360  0.3145 -0.4036 -0.6676
   96ST     H12 2646  -0.439   1.059   2.232  0.3857  0.3622  1.4800
   96ST     C13 2647  -0.620   1.181   2.232 -0.4999 -0.2116 -0.1044
   96ST     H14 2648  -0.601   1.218   2.131  0.7558  2.6543  1.1135
   96ST     H15 2649  -0.727   1.168   2.247 -0.3617 -1.9358 -0.5868
   96ST     C16 2650  -0.569   1.296   2.325  0.4412  0.2667  0.2397
   96ST     H17 2651  -0.629   1.382   2.296 -1.6883 -2.5418 -4.2775
   96ST     H18 2652  -0.602   1.273   2.426  1.8950  0.8293  0.8427
   96ST     C19 2653  -0.414   1.322   2.333  0.5088 -0.6941  0.3297
   96ST     H1A 2654  -0.364   1.228   2.354  2.6002  0.3211  0.0503
   96ST     H1B 2655  -0.378   1.356   2.236 -1.1288  1.2231  0.3535
   96ST     C1C 2656  -0.368   1.434   2.426 -0.0618 -0.0485  0.1542
   96ST     H1D 2657  -0.423   1.521   2.392  0.1199  0.5412  1.3254
   96ST     H1E 2658  -0.403   1.413   2.528  0.0502  3.6902  1.0392
   96ST     C1F 2659  -0.209   1.462   2.417 -0.0870  0.0832  0.1044
   96ST     H1G 2660  -0.182   1.479   2.313  0.2600  0.8786  0.3219
   96ST     H1H 2661  -0.181   1.539   2.488 -0.4603 -0.9654  1.4073
   96ST     C1I 2662  -0.134   1.352   2.479  0.0338 -0.4287 -0.3180
   96ST     H1J 2663  -0.159   1.261   2.424  1.4472 -0.4836 -0.8919
   96ST     H1K 2664  -0.180   1.349   2.578  1.0898 -3.0380  0.1297
   96ST     C1M 2665   0.018   1.389   2.487  0.3440 -0.0995  0.3433
   96ST     H1N 2666   0.041   1.479   2.544  5.0936 -1.1380  0.2116
   96ST     H1O 2667   0.059   1.408   2.388  1.9517  1.0884  1.2218
   96ST     C1P 2668   0.096   1.273   2.547  0.3968  0.6880  0.0411
   96ST     H1Q 2669   0.044   1.238   2.637  0.5818 -1.3895 -0.6354
   96ST     H1R 2670   0.086   1.185   2.484 -0.1526 -0.7266  2.0395
   96ST     C1S 2671   0.246   1.295   2.574  0.4214 -0.4922  0.7948
   96ST     H1T 2672   0.293   1.330   2.483 -0.6025 -2.0422 -0.3462
   96ST     H1U 2673   0.305   1.212   2.612  2.7443  0.6383 -0.2159
   96ST     H1V 2674   0.257   1.376   2.647 -4.3714  0.5007  0.6202
   97EH     H00 2675   0.302   0.802   2.501 -0.8490  2.1947 -2.1805
   97EH     C01 2676   0.215   0.821   2.565 -0.2606 -0.1759 -0.5871
   97EH     H02 2677   0.211   0.927   2.591 -0.4258 -0.1380 -0.7640
   97EH     H03 2678   0.135   0.811   2.492 -1.5969  1.6645  0.5639
   97EH     C04 2679   0.213   0.727   2.683 -0.5427 -0.1630  0.1731
   97EH     C05 2680   0.315   0.737   2.773 -0.5420  0.7293 -0.3736
   97EH     H06 2681   0.306   0.666   2.854 -1.6344  1.0790 -0.1779
   97EH     H07 2682   0.411   0.755   2.727 -0.1944  0.0159  0.0672
   97EH     C08 2683   0.073   0.712   2.730  0.3928 -0.0546 -0.4346
   97EH     O09 2684   0.029   0.631   2.814 -0.1408  0.7500  0.0794
   97EH     O0A 2685  -0.011   0.806   2.674 -0.2810  0.0385  0.2516
   97EH     C0B 2686  -0.138   0.829   2.722 -0.3409 -0.7564  0.0703
   97EH     H0C 2687  -0.138   0.829   2.831 -0.1153 -0.3063  0.0746
   97EH     H0D 2688  -0.202   0.750   2.683  0.6001 -1.3596 -0.2714
   97EH     C0E 2689  -0.211   0.958   2.665  0.0687  0.3208  0.0678
   97EH     H0F 2690  -0.181   1.036   2.734 -1.2641  0.7683  0.1530
   97EH     C0G 2691  -0.183   0.986   2.522 -0.3665 -0.0140  0.2694
   97EH     H0H 2692  -0.086   1.034   2.512  1.0103 -2.6618  0.4428
   97EH     H0I 2693  -0.254   1.057   2.480  0.6118  0.7666 -0.0796
   97EH     C0J 2694  -0.195   0.870   2.420 -0.3318  0.5139 -0.7512
   97EH     H0K 2695  -0.291   0.819   2.429  1.6806 -3.0336  1.9043
   97EH     H0M 2696  -0.107   0.806   2.421  0.6866  1.9151 -0.4727
   97EH     H0N 2697  -0.195   0.916   2.321  0.2066 -0.5074 -1.2338
   97EH     C0O 2698  -0.365   0.950   2.697 -0.4504  0.0055 -0.0149
   97EH     H0P 2699  -0.412   0.887   2.622 -1.5884  0.1451  0.5691
   97EH     H0Q 2700  -0.385   0.907   2.795 -2.0156 -1.4727 -0.9525
   97EH     C0R 2701  -0.437   1.086   2.706 -0.4962 -0.7947 -0.0146
   97EH     H0S 2702  -0.443   1.121   2.603  2.2950  0.9126  0.3312
   97EH     H0T 2703  -0.384   1.166   2.760 -0.7461 -0.7460  0.1582
   97EH     C0U 2704  -0.583   1.083   2.753  0.0608 -0.1312 -0.7541
   97EH     H0V 2705  -0.637   1.009   2.693  1.8146  0.0516 -2.6458
   97EH     H0W 2706  -0.601   1.057   2.857 -2.1962 -2.2649 -1.6175
   97EH     C0X 2707  -0.651   1.216   2.732  0.1748  0.9753  0.8357
   97EH     H0Y 2708  -0.589   1.298   2.770  0.8719  0.6607  0.3982
   97EH     H0Z 2709  -0.753   1.205   2.768  0.2243 -0.2314  0.6120
   97EH     H10 2710  -0.664   1.231   2.624  1.0492  0.0740  0.6012
   98LA     H00 2711   0.333   1.033   2.737 -0.2635  1.0607  2.7293
   98LA     C01 2712   0.402   0.968   2.791  0.4187 -0.3468  0.2822
   98LA     H02 2713   0.485   0.940   2.726  0.0215 -1.8869  0.4190
   98LA     H03 2714   0.441   1.050   2.852 -1.6519  0.7893  0.1009
   98LA     C04 2715   0.335   0.862   2.878 -0.1531 -0.2366 -0.0238
   98LA     C05 2716   0.213   0.878   2.926  0.2468  0.6945 -0.9557
   98LA     H06 2717   0.151   0.930   2.854  0.8298 -0.5871 -2.4138
   98LA     H07 2718   0.164   0.796   2.976 -1.2854  2.0769 -0.1390
   98LA     C08 2719   0.435   0.791   2.957  0.3181 -0.4154  0.5199
   98LA     O09 2720   0.556   0.788   2.935 -0.5598 -0.7150  0.2207
   98LA     O0A 2721   0.397   0.717   3.059 -0.2405 -0.3173 -0.2700
   98LA     C0B 2722   0.486   0.635   3.130  0.8212  0.2452 -0.1194
   98LA     H0C 2723   0.429   0.622   3.221  0.1203  0.5140 -0.5130
   98LA     H0D 2724   0.579   0.685   3.156  2.6053 -2.1653 -1.5447
   98LA     C0E 2725   0.516   0.510   3.048  0.2896 -0.5390 -0.2508
   98LA     H0F 2726   0.424   0.453   3.038 -0.3604  0.6892 -1.5243
   98LA     H0G 2727   0.553   0.545   2.952  1.4200  2.1345  1.1095
   98LA     C0H 2728   0.631   0.427   3.108 -0.5442  0.1944 -0.7104
   98LA     H0I 2729   0.705   0.492   3.154 -0.5560 -0.7929  0.7415
   98LA     H0J 2730   0.604   0.358   3.187  0.6820  1.1895  0.6019
   98LA     C0K 2731   0.707   0.345   3.004 -0.1757  0.1837  0.1224
   98LA     H0M 2732   0.660   0.247   2.995 -0.0819  0.2716 -1.5554
   98LA     H0N 2733   0.689   0.377   2.901 -0.1715 -0.0486  0.0478
   98LA     C0O 2734   0.856   0.333   3.041 -0.9314 -0.2782  0.4970
   98LA     H0P 2735   0.896   0.434   3.032  0.0454 -0.8764 -2.1761
   98LA     H0Q 2736   0.876   0.309   3.145 -0.6724 -2.6557 -0.0855
   98LA     C0R 2737   0.933   0.238   2.949  0.3671 -0.2996  0.3666
   98LA     H0S 2738   0.880   0.144   2.931  1.8537 -0.4911 -3.3956
   98LA     H0T 2739   0.951   0.274   2.848 -3.4839  0.4572 -0.1113
   98LA     C0U 2740   1.074   0.221   3.006 -0.2280  0.9813 -0.2859
   98LA     H0V 2741   1.114   0.319   3.030 -2.1713  1.4038  1.4110
   98LA     H0W 2742   1.047   0.169   3.098  0.5846  0.9230 -0.0844
   98LA     C0X 2743   1.165   0.146   2.910  0.6359 -0.1740 -0.3705
   98LA     H0Y 2744   1.240   0.118   2.984 -2.1234 -0.8604  2.2806
   98LA     H0Z 2745   1.117   0.061   2.861  1.2466  0.2201 -1.6492
   98LA     C10 2746   1.230   0.241   2.806  0.1773  0.2646  0.1001
   98LA     H11 2747   1.236   0.346   2.836  1.6014 -0.0081  0.8241
   98LA     H12 2748   1.149   0.246   2.733 -0.6265 -1.0295  0.8903
   98LA     C13 2749   1.361   0.192   2.745  0.2374 -0.4141  0.3884
   98LA     H14 2750   1.351   0.084   2.745 -2.6543 -0.1966  0.0320
   98LA     H15 2751   1.440   0.226   2.812 -0.9478  2.4506  0.4525
   98LA     C16 2752   1.374   0.250   2.609 -0.0263  0.4496 -0.4304
   98LA     H17 2753   1.316   0.342   2.600 -0.5431  0.3031  1.1999
   98LA     H18 2754   1.329   0.174   2.545 -0.1951  0.6206 -0.5153
   98LA     C19 2755   1.519   0.299   2.571  0.6447 -0.1580  0.2979
   98LA     H1A 2756   1.509   0.358   2.480  0.1631 -2.3212 -1.0950
   98LA     H1B 2757   1.569   0.209   2.537  2.3885  1.0690 -0.4661
   98LA     H1C 2758   1.572   0.353   2.649 -3.4793  3.5810  0.7141
   99EH     H00 2759  -0.003   0.979   3.167  1.1550  1.2840 -0.5965
   99EH     C01 2760   0.049   0.911   3.099  0.2596 -0.1177  0.1056
   99EH     H02 2761   0.075   0.819   3.152  1.2451 -0.0208 -0.2008
   99EH     H03 2762  -0.024   0.880   3.025  0.2082 -0.3497  0.2522
   99EH     C04 2763   0.175   0.984   3.050  0.5501 -0.0602 -0.0404
   99EH     C05 2764   0.290   0.989   3.129  0.4718  0.3592  0.1336
   99EH     H06 2765   0.314   0.902   3.188 -0.1302  0.2657  0.2520
   99EH     H07 2766   0.373   1.018   3.067  1.5402 -1.1001  0.8426
   99EH     C08 2767   0.143   1.106   2.971  0.4997  0.9035 -0.5050
   99EH     O09 2768   0.229   1.168   2.904 -0.6679 -0.4699  0.1452
   99EH     O0A 2769   0.020   1.149   3.003 -0.0855 -0.9293  0.2676
   99EH     C0B 2770  -0.035   1.253   2.927 -0.1926 -0.0184 -0.0377
   99EH     H0C 2771  -0.052   1.215   2.826  3.7744 -0.3416 -0.6698
   99EH     H0D 2772   0.035   1.336   2.916  0.2088 -0.4258 -0.6037
   99EH     C0E 2773  -0.168   1.293   2.999  0.1343 -0.1227  0.6372
   99EH     H0F 2774  -0.139   1.338   3.094  0.6735  0.3534  0.2465
   99EH     C0G 2775  -0.247   1.400   2.926 -0.1586 -0.4650 -0.0776
   99EH     H0H 2776  -0.282   1.369   2.827  0.3484  0.3874 -0.5309
   99EH     H0I 2777  -0.185   1.488   2.906  0.1896 -0.9681 -1.2289
   99EH     C0J 2778  -0.369   1.456   3.001  0.2190 -0.2538 -0.5278
   99EH     H0K 2779  -0.362   1.458   3.109 -3.2553 -0.8394 -0.2391
   99EH     H0M 2780  -0.452   1.390   2.975 -0.0254  0.1884 -0.8849
   99EH     H0N 2781  -0.404   1.554   2.969 -0.8933  0.3159  2.2753
   99EH     C0O 2782  -0.255   1.169   3.021 -0.1620 -0.5780  0.4947
   99EH     H0P 2783  -0.354   1.169   2.976 -0.2483  2.2822  0.5953
   99EH     H0Q 2784  -0.209   1.079   2.980 -0.8783 -0.0510 -1.5099
   99EH     C0R 2785  -0.278   1.135   3.165 -0.2916  0.2014 -1.2546
   99EH     H0S 2786  -0.328   1.213   3.223 -1.0347 -0.2898 -1.2199
   99EH     H0T 2787  -0.185   1.123   3.220  0.5161 -1.0156 -2.8658
   99EH     C0U 2788  -0.362   1.006   3.185  0.2689 -0.6246  0.6823
   99EH     H0V 2789  -0.466   1.017   3.153  0.3463  0.2414  0.7123
   99EH     H0W 2790  -0.322   0.918   3.135  1.5099  0.4430 -0.2384
   99EH     C0X 2791  -0.355   0.963   3.335 -0.0067  0.2392 -0.1281
   99EH     H0Y 2792  -0.389   0.864   3.365 -3.0611  1.6109  1.1563
   99EH     H0Z 2793  -0.393   1.037   3.406 -3.1451  0.5895 -2.0655
   99EH     H10 2794  -0.247   0.965   3.349 -0.0283  1.1122 -0.0243
  100EH     H00 2795   0.110   1.072   3.362  0.1478  0.2101  1.6520
  100EH     C01 2796   0.207   1.023   3.360 -0.1234 -0.3127  0.1085
  100EH     H02 2797   0.248   1.036   3.460  1.2077  0.7052 -0.5459
  100EH     H03 2798   0.189   0.916   3.350  0.3120 -0.4102  0.3462
  100EH     C04 2799   0.307   1.073   3.253  0.1833  0.3189 -0.4464
  100EH     C05 2800   0.286   1.202   3.211  0.2423  0.2318 -0.5068
  100EH     H06 2801   0.179   1.215   3.224  0.1065 -0.7220 -0.6203
  100EH     H07 2802   0.339   1.228   3.121 -0.0658 -1.6623 -1.2741
  100EH     C08 2803   0.444   1.021   3.282  0.6188  0.9027  0.1966
  100EH     O09 2804   0.466   0.935   3.367  0.3032 -0.4790 -0.1976
  100EH     O0A 2805   0.534   1.073   3.204  0.0101 -0.6215  0.3329
  100EH     C0B 2806   0.667   1.021   3.196  0.2415  0.5795 -0.3785
  100EH     H0C 2807   0.709   1.092   3.125  0.1864 -1.8501 -2.9018
  100EH     H0D 2808   0.658   0.928   3.141  1.2956  0.6001 -0.5922
  100EH     C0E 2809   0.750   1.002   3.324  0.9908 -0.5467 -0.2975
  100EH     H0F 2810   0.714   0.910   3.371  0.1251 -0.6052 -1.0609
  100EH     C0G 2811   0.892   0.980   3.280  0.4513  0.7315 -0.1159
  100EH     H0H 2812   0.937   1.056   3.215  1.6507  1.5034  1.5916
  100EH     H0I 2813   0.911   0.895   3.214  1.3218  1.9780 -1.5314
  100EH     C0J 2814   1.002   0.974   3.390  0.8240 -0.1776 -0.3242
  100EH     H0K 2815   0.979   1.051   3.465  0.1642  0.7793 -1.4960
  100EH     H0M 2816   1.103   0.970   3.349  1.1973  3.2905  0.0992
  100EH     H0N 2817   0.996   0.879   3.442 -1.1843 -0.6740 -1.4225
  100EH     C0O 2818   0.721   1.112   3.431 -0.2586  0.3753 -0.2477
  100EH     H0P 2819   0.799   1.187   3.419  0.5433 -0.6954 -1.9723
  100EH     H0Q 2820   0.643   1.187   3.411 -0.8358 -0.2477 -0.3556
  100EH     C0R 2821   0.709   1.059   3.574  0.0103 -0.5557 -0.6080
  100EH     H0S 2822   0.786   0.983   3.588 -0.0564 -0.4334  0.4650
  100EH     H0T 2823   0.616   1.002   3.580 -0.2616  0.1349  2.4488
  100EH     C0U 2824   0.724   1.162   3.690 -0.5372  0.6236 -0.8419
  100EH     H0V 2825   0.826   1.183   3.720  0.1970 -1.7499 -1.5737
  100EH     H0W 2826   0.687   1.260   3.660 -1.0720  0.4720 -0.6800
  100EH     C0X 2827   0.643   1.129   3.811 -0.0216  0.0261  0.6601
  100EH     H0Y 2828   0.650   1.213   3.880 -0.8571  2.2240 -1.8626
  100EH     H0Z 2829   0.686   1.041   3.858  0.8337  0.8223  1.3838
  100EH     H10 2830   0.538   1.112   3.785 -0.6094  0.1256  2.8853
  101ST     H00 2831   0.232   1.237   3.466  0.8415 -1.1531  1.0209
  101ST     C01 2832   0.320   1.292   3.433  0.0072 -0.4175  0.0208
  101ST     H02 2833   0.340   1.369   3.508 -0.4523  1.0949 -1.3592
  101ST     H03 2834   0.409   1.231   3.447  0.4200  0.6807  2.4452
  101ST     C04 2835   0.331   1.330   3.288  0.3937  0.3717 -0.1779
  101ST     C05 2836   0.459   1.358   3.246 -0.0138  0.4167 -0.1704
  101ST     H06 2837   0.528   1.285   3.285 -2.2117 -0.7486  1.6966
  101ST     H07 2838   0.477   1.375   3.141  2.2048  2.2089  0.4575
  101ST     C08 2839   0.221   1.408   3.236  0.9775  0.0057 -0.7203
  101ST     O09 2840   0.202   1.431   3.113  0.3617 -0.1491 -0.0139
  101ST     O0A 2841   0.141   1.451   3.334 -0.2645  0.1591 -0.4437
  101ST     C0B 2842   0.031   1.539   3.296  0.1771 -0.1511 -0.1779
  101ST     H0C 2843   0.068   1.632   3.254  0.1523 -0.1249 -0.1419
  101ST     H0D 2844  -0.020   1.500   3.208  0.5499 -2.7225  0.6766
  101ST     C0E 2845  -0.079   1.561   3.408 -0.3312 -0.3774  0.3958
  101ST     H0F 2846  -0.120   1.659   3.380 -0.2690 -0.4847 -0.0843
  101ST     H0G 2847  -0.035   1.577   3.506  1.2310  0.8786 -0.4641
  101ST     C0H 2848  -0.191   1.452   3.405  0.2707  0.0154  0.4413
  101ST     H0I 2849  -0.216   1.427   3.301 -0.6216 -2.0586  1.1231
  101ST     H0J 2850  -0.287   1.484   3.445 -1.0614 -1.2398 -1.6343
  101ST     C0K 2851  -0.155   1.318   3.473 -0.1686 -0.4440  0.1086
  101ST     H0M 2852  -0.246   1.259   3.464 -0.3004 -0.1752 -0.4097
  101ST     H0N 2853  -0.089   1.266   3.404  0.2088  0.8872 -0.5701
  101ST     C0O 2854  -0.097   1.331   3.617  0.1307 -0.2824  0.7887
  101ST     H0P 2855  -0.144   1.409   3.677 -2.1051 -0.0045 -1.2658
  101ST     H0Q 2856   0.006   1.359   3.598  0.9112 -3.2311  0.4417
  101ST     C0R 2857  -0.106   1.196   3.695  0.0328 -0.1231  0.8351
  101ST     H0S 2858  -0.061   1.118   3.634 -4.4061 -0.4733 -2.2871
  101ST     H0T 2859  -0.210   1.163   3.691 -0.7222  2.2881  0.0087
  101ST     C0U 2860  -0.033   1.191   3.825 -0.8223  0.2741 -0.6832
  101ST     H0V 2861  -0.049   1.093   3.870 -2.2451  1.7441  2.1429
  101ST     H0W 2862  -0.092   1.259   3.886  1.0724  2.9178 -1.6785
  101ST     C0X 2863   0.113   1.235   3.838 -0.2865  0.2884 -1.1209
  101ST     H0Y 2864   0.126   1.339   3.809 -2.9450  1.6161  2.0055
  101ST     H0Z 2865   0.145   1.258   3.940  0.7182 -0.2178 -1.3096
  101ST     C10 2866   0.211   1.144   3.770  0.1902 -0.5288 -0.2841
  101ST     H11 2867   0.184   1.132   3.665  0.1478  0.3373 -0.3710
  101ST     H12 2868   0.311   1.185   3.777  0.5164 -1.7556  2.7938
  101ST     C13 2869   0.215   1.003   3.840 -0.3094  0.7681  0.3256
  101ST     H14 2870   0.248   1.014   3.943 -3.1545  1.4861  1.2172
  101ST     H15 2871   0.114   0.963   3.849 -0.0764  0.1681  0.2393
  101ST     C16 2872   0.313   0.910   3.762  0.2230 -0.3115  0.7003
  101ST     H17 2873   0.285   0.915   3.657 -0.4892  0.8570  0.9310
  101ST     H18 2874   0.414   0.950   3.769 -0.1160  0.9974 -1.4871
  101ST     C19 2875   0.319   0.768   3.826 -0.5433 -0.5586  0.3833
  101ST     H1A 2876   0.350   0.780   3.930  0.0793  0.7942  0.0419
  101ST     H1B 2877   0.219   0.725   3.832 -1.1864  1.1195  1.9552
  101ST     C1C 2878   0.407   0.674   3.756 -0.3423  0.0273  0.7341
  101ST     H1D 2879   0.407   0.578   3.808 -2.5034  0.2363  1.1572
  101ST     H1E 2880   0.359   0.657   3.659 -1.9797 -1.1234  1.7275
  101ST     C1F 2881   0.551   0.725   3.738  0.2734 -0.3176  0.6090
  101ST     H1G 2882   0.545   0.819   3.682 -0.7831  0.0036  1.2364
  101ST     H1H 2883   0.600   0.753   3.831 -0.8661 -0.5424  1.2773
  101ST     C1I 2884   0.642   0.623   3.663 -0.4349 -0.0043  0.0597
  101ST     H1J 2885   0.586   0.574   3.583  0.6631 -3.2162  1.2078
  101ST     H1K 2886   0.665   0.550   3.741 -0.8939 -0.8170 -0.5625
  101ST     C1M 2887   0.768   0.676   3.596  0.6075 -0.6953 -0.2222
  101ST     H1N 2888   0.831   0.729   3.667 -0.8740 -0.8477  1.2376
  101ST     H1O 2889   0.736   0.745   3.518 -2.0922  0.6629  1.9728
  101ST     C1P 2890   0.853   0.569   3.536  0.4392 -0.4402  0.2042
  101ST     H1Q 2891   0.949   0.616   3.512 -0.4226  0.4185 -1.6125
  101ST     H1R 2892   0.891   0.504   3.615 -1.2893 -2.0287 -0.2451
  101ST     C1S 2893   0.798   0.518   3.403  0.4469 -0.3588 -0.0001
  101ST     H1T 2894   0.699   0.473   3.406 -1.1265  3.0410  1.1335
  101ST     H1U 2895   0.857   0.436   3.361  0.9298  0.4753 -0.9717
  101ST     H1V 2896   0.791   0.599   3.331 -0.2700  0.7826  1.3398
  102EH     H00 2897   0.503   1.688   3.179 -0.3599  0.5800  0.2643
  102EH     C01 2898   0.447   1.597   3.202  0.2841 -0.1200 -0.9011
  102EH     H02 2899   0.361   1.629   3.262  1.3029 -1.3412  1.2741
  102EH     H03 2900   0.417   1.552   3.107  1.7981 -2.3048 -0.3812
  102EH     C04 2901   0.535   1.496   3.278 -0.1398  0.0796 -0.3336
  102EH     C05 2902   0.533   1.499   3.415  0.0457 -0.0326 -0.0889
  102EH     H06 2903   0.584   1.414   3.458  1.4126  1.2537  0.8944
  102EH     H07 2904   0.437   1.533   3.451  0.2120  0.1290  0.1988
  102EH     C08 2905   0.658   1.463   3.201  0.4777 -0.4004  0.1068
  102EH     O09 2906   0.745   1.390   3.242 -0.4653  0.4463 -0.0532
  102EH     O0A 2907   0.653   1.509   3.075  0.1111  0.4368  0.2007
  102EH     C0B 2908   0.749   1.480   2.970 -0.3368  0.7671 -0.6128
  102EH     H0C 2909   0.842   1.441   3.010 -0.9081  0.0197 -0.0087
  102EH     H0D 2910   0.792   1.577   2.944 -0.2530  0.4531 -1.6816
  102EH     C0E 2911   0.687   1.407   2.838 -0.1548  0.7344 -0.4686
  102EH     H0F 2912   0.749   1.428   2.751  0.3720  0.2060 -0.2175
  102EH     C0G 2913   0.673   1.258   2.853  0.1719 -0.0364  0.2970
  102EH     H0H 2914   0.620   1.226   2.763  2.3269 -1.3076 -0.5561
  102EH     H0I 2915   0.614   1.247   2.944 -1.4091  3.2235 -0.2510
  102EH     C0J 2916   0.803   1.182   2.858 -0.3785 -0.4208  0.1356
  102EH     H0K 2917   0.781   1.079   2.888  0.5728 -0.7443 -0.2579
  102EH     H0M 2918   0.874   1.181   2.775 -0.7293  0.0024 -0.1703
  102EH     H0N 2919   0.855   1.223   2.945 -0.4593 -1.0275  0.4776
  102EH     C0O 2920   0.539   1.461   2.813 -0.0183  0.0161 -0.5985
  102EH     H0P 2921   0.483   1.394   2.747  1.0799 -1.1160 -0.3984
  102EH     H0Q 2922   0.473   1.446   2.899 -0.0031  0.6996 -0.4607
  102EH     C0R 2923   0.512   1.616   2.775  0.3681 -0.5178 -0.5248
  102EH     H0S 2924   0.578   1.651   2.696 -1.8759  3.5509 -0.7256
  102EH     H0T 2925   0.552   1.671   2.860 -0.5500 -0.5764 -0.0558
  102EH     C0U 2926   0.375   1.637   2.711 -0.5345 -0.2035 -0.3368
  102EH     H0V 2927   0.365   1.738   2.672 -1.8122  0.4230  1.5501
  102EH     H0W 2928   0.352   1.573   2.626  0.0495  0.0404 -0.6792
  102EH     C0X 2929   0.259   1.609   2.810  0.3165  0.6021 -0.9982
  102EH     H0Y 2930   0.159   1.614   2.768 -0.0006  1.8111 -0.1307
  102EH     H0Z 2931   0.277   1.664   2.903 -0.4005 -0.7617 -0.0375
  102EH     H10 2932   0.263   1.501   2.824 -1.7824  0.6557  0.2384
  103LA     H00 2933   0.630   1.762   3.336 -0.2430 -0.2450 -0.2876
  103LA     C01 2934   0.567   1.743   3.423  0.6289  0.2106  0.4595
  103LA     H02 2935   0.606   1.825   3.484 -0.8480  0.3529  1.2329
  103LA     H03 2936   0.460   1.755   3.408  0.7861 -0.7470 -1.5563
  103LA     C04 2937   0.612   1.616   3.488 -0.0790 -0.0225  0.0912
  103LA     C05 2938   0.744   1.570   3.485 -0.1406 -0.8525  0.0818
  103LA     H06 2939   0.758   1.469   3.518 -1.5438 -0.0178  3.4770
  103LA     H07 2940   0.794   1.588   3.391 -0.8813  0.6491 -0.0347
  103LA     C08 2941   0.531   1.590   3.609 -0.7580  0.1327  0.2621
  103LA     O09 2942   0.540   1.495   3.685 -0.3342 -0.3785  0.2539
  103LA     O0A 2943   0.452   1.693   3.637 -0.3741 -0.2271  0.5349
  103LA     C0B 2944   0.348   1.678   3.721  0.4089 -0.5029  0.2217
  103LA     H0C 2945   0.388   1.659   3.821 -0.3119  0.4793  0.7039
  103LA     H0D 2946   0.300   1.585   3.691  1.9463 -1.1033 -0.4057
  103LA     C0E 2947   0.260   1.798   3.711 -0.0959  0.3846  0.2179
  103LA     H0F 2948   0.178   1.769   3.777 -0.7302 -0.5199 -0.9545
  103LA     H0G 2949   0.311   1.884   3.754  0.1545  1.1371 -1.5282
  103LA     C0H 2950   0.196   1.831   3.574  0.1042 -0.3719 -0.0378
  103LA     H0I 2951   0.277   1.852   3.504  1.3389 -1.3713  1.0643
  103LA     H0J 2952   0.143   1.738   3.556  0.5193 -0.6377  0.0958
  103LA     C0K 2953   0.106   1.951   3.566 -0.2271  0.7587 -0.3644
  103LA     H0M 2954   0.048   1.961   3.657  2.3607 -0.0668  1.4577
  103LA     H0N 2955   0.159   2.047   3.569 -0.6094  1.1010 -3.2016
  103LA     C0O 2956   0.018   1.945   3.437  0.4749 -0.4658  0.2358
  103LA     H0P 2957  -0.038   1.852   3.447  0.9740 -1.1015 -2.5618
  103LA     H0Q 2958  -0.039   2.037   3.423 -1.0388 -1.3949  0.2629
  103LA     C0R 2959   0.096   1.949   3.305 -0.3346 -0.3332  0.1579
  103LA     H0S 2960   0.160   2.035   3.285  1.4867 -1.5618  0.6228
  103LA     H0T 2961   0.168   1.868   3.296 -0.9519 -1.1908  2.4585
  103LA     C0U 2962  -0.004   1.947   3.192 -0.2825 -0.1099 -0.2628
  103LA     H0V 2963  -0.074   1.865   3.208 -1.2761  0.0400 -3.3272
  103LA     H0W 2964  -0.063   2.039   3.195  0.7487  0.6082 -1.3576
  103LA     C0X 2965   0.062   1.931   3.051 -0.4931 -0.4133 -0.5507
  103LA     H0Y 2966   0.142   2.005   3.048 -0.8181 -0.0211  0.1901
  103LA     H0Z 2967   0.109   1.834   3.046  0.2724  0.0838 -4.8536
  103LA     C10 2968  -0.027   1.944   2.925 -0.5123  1.0366 -0.0295
  103LA     H11 2969  -0.100   2.025   2.929 -2.0161 -0.3415  1.4371
  103LA     H12 2970  -0.084   1.852   2.919  1.2952 -0.0754 -0.4346
  103LA     C13 2971   0.054   1.961   2.802  0.3393 -0.1058 -0.2541
  103LA     H14 2972   0.115   1.871   2.801 -3.2699 -2.6502  0.0705
  103LA     H15 2973   0.119   2.047   2.789 -1.1717  1.0593 -0.3110
  103LA     C16 2974  -0.024   1.947   2.665  0.4938 -0.5582  0.3545
  103LA     H17 2975   0.046   1.992   2.594  0.0862 -1.2383 -0.4868
  103LA     H18 2976  -0.105   2.019   2.670  0.0841 -1.0618  0.9545
  103LA     C19 2977  -0.068   1.805   2.630 -0.1037  0.2348 -0.5906
  103LA     H1A 2978  -0.138   1.802   2.546 -0.8029 -1.0265  0.0213
  103LA     H1B 2979  -0.131   1.773   2.714  2.4262 -0.9158  0.9359
  103LA     H1C 2980   0.017   1.748   2.594 -0.6840  1.0938 -3.4695
  104EH     H00 2981   0.749   1.663   3.761 -1.7319  1.3006 -3.2145
  104EH     C01 2982   0.818   1.591   3.717 -0.5017  0.2063  0.3538
  104EH     H02 2983   0.908   1.583   3.778  0.3817  1.2852 -0.7615
  104EH     H03 2984   0.778   1.490   3.710  0.3781 -0.0851 -0.6759
  104EH     C04 2985   0.857   1.643   3.572  0.0898 -0.7388  0.8725
  104EH     C05 2986   0.846   1.773   3.546 -0.2630  0.2288  0.4441
  104EH     H06 2987   0.763   1.813   3.603 -1.4216 -1.7024  0.1301
  104EH     H07 2988   0.862   1.792   3.441 -0.3799 -5.1784 -0.6705
  104EH     C08 2989   0.957   1.556   3.508 -0.2256  0.0829  1.0848
  104EH     O09 2990   1.024   1.584   3.405 -0.2179  0.1579 -0.4205
  104EH     O0A 2991   0.973   1.438   3.574  0.5932  0.3328  0.2766
  104EH     C0B 2992   1.070   1.351   3.545  0.1498 -0.7488  0.5500
  104EH     H0C 2993   1.113   1.363   3.446 -0.8434 -1.8436 -0.0208
  104EH     H0D 2994   1.026   1.253   3.528  0.3474 -1.2002  2.5162
  104EH     C0E 2995   1.175   1.356   3.649 -0.1958 -0.2413 -0.0859
  104EH     H0F 2996   1.248   1.284   3.614 -0.0435 -0.3111  0.3693
  104EH     C0G 2997   1.246   1.496   3.645  0.0237 -0.5537  0.2806
  104EH     H0H 2998   1.205   1.556   3.726  1.7773 -0.9348  1.4768
  104EH     H0I 2999   1.233   1.542   3.547  1.3316 -2.7743 -0.9865
  104EH     C0J 3000   1.395   1.477   3.667  0.6415  0.7506  0.2776
  104EH     H0K 3001   1.445   1.409   3.597 -0.4692 -1.1159  1.2788
  104EH     H0M 3002   1.419   1.446   3.768  0.1745  0.3603  0.2681
  104EH     H0N 3003   1.429   1.580   3.652  0.1543  0.8729 -0.0042
  104EH     C0O 3004   1.137   1.303   3.788 -0.1116 -0.5219 -0.5204
  104EH     H0P 3005   1.194   1.352   3.866 -0.2448 -0.4152 -0.4913
  104EH     H0Q 3006   1.033   1.330   3.801 -0.1658 -0.7146 -0.5450
  104EH     C0R 3007   1.166   1.149   3.798 -0.3249 -0.0716 -0.3601
  104EH     H0S 3008   1.263   1.117   3.759 -0.3441 -2.3981  1.4025
  104EH     H0T 3009   1.099   1.109   3.723  1.0231 -0.9267 -1.1364
  104EH     C0U 3010   1.136   1.097   3.946 -0.8317 -0.8042  0.2072
  104EH     H0V 3011   1.223   1.058   3.999 -1.6278 -2.9156  0.0111
  104EH     H0W 3012   1.111   1.186   4.004 -0.6406  0.0095 -0.9514
  104EH     C0X 3013   1.026   0.990   3.934 -0.2543  0.0549  0.6455
  104EH     H0Y 3014   1.071   0.894   3.908  1.4046 -0.1047  3.8727
  104EH     H0Z 3015   0.945   1.012   3.865  0.4331 -1.9638 -0.8813
  104EH     H10 3016   0.972   0.998   4.028 -1.3148 -3.0330  0.3854
  105LA     H00 3017   1.102   1.736   3.657 -0.5366  0.1323 -2.1633
  105LA     C01 3018   1.039   1.816   3.696  0.3905  0.0287 -0.3937
  105LA     H02 3019   0.985   1.789   3.787 -0.4019  0.2096 -0.8106
  105LA     H03 3020   1.103   1.899   3.725 -1.4647  0.9455  1.1649
  105LA     C04 3021   0.949   1.881   3.593 -0.2959  0.1718 -0.1402
  105LA     C05 3022   1.015   1.907   3.477 -0.5009 -0.1931 -0.2568
  105LA     H06 3023   1.068   1.824   3.433  2.3024  1.3536  0.1076
  105LA     H07 3024   0.945   1.958   3.413 -1.3598 -3.2147 -1.8209
  105LA     C08 3025   0.852   1.983   3.646  0.3702  0.2593  0.0226
  105LA     O09 3026   0.811   1.978   3.765 -0.1824  0.9266  0.4143
  105LA     O0A 3027   0.790   2.049   3.542  0.0238 -0.0215 -0.7783
  105LA     C0B 3028   0.675   2.123   3.575  0.4107  0.2629  0.1228
  105LA     H0C 3029   0.695   2.209   3.637  2.4031 -1.3956  1.8521
  105LA     H0D 3030   0.610   2.060   3.635  1.4513 -1.3315 -0.3712
  105LA     C0E 3031   0.612   2.162   3.442  0.6870 -0.5962 -0.2796
  105LA     H0F 3032   0.688   2.221   3.390 -0.5869 -0.1887 -1.7302
  105LA     H0G 3033   0.600   2.068   3.388  0.6759 -0.0835 -1.1941
  105LA     C0H 3034   0.482   2.233   3.452  0.8780  0.2113 -0.0488
  105LA     H0I 3035   0.410   2.155   3.480  0.2000  1.1011  0.7173
  105LA     H0J 3036   0.493   2.318   3.520 -1.2462  0.5020 -0.0379
  105LA     C0K 3037   0.426   2.275   3.316 -0.0648 -0.6174  0.5090
  105LA     H0M 3038   0.493   2.351   3.275  0.9316 -2.0530 -0.5526
  105LA     H0N 3039   0.456   2.197   3.245  0.1906 -0.8381  0.8563
  105LA     C0O 3040   0.280   2.325   3.320 -0.4783 -0.4881 -1.0026
  105LA     H0P 3041   0.216   2.249   3.366 -1.2542 -0.2719 -1.7113
  105LA     H0Q 3042   0.268   2.414   3.381 -0.1780 -1.0001 -0.1825
  105LA     C0R 3043   0.239   2.356   3.186  0.3211  0.7200  0.6139
  105LA     H0S 3044   0.305   2.426   3.136  1.4340 -1.1723 -0.6507
  105LA     H0T 3045   0.251   2.258   3.140  0.1054  1.8648 -1.9282
  105LA     C0U 3046   0.098   2.418   3.178 -0.2061 -0.1981  0.2785
  105LA     H0V 3047   0.026   2.362   3.238 -0.7648  0.4749  0.2384
  105LA     H0W 3048   0.103   2.521   3.212  0.1709  0.6356 -2.2408
  105LA     C0X 3049   0.046   2.411   3.035 -0.2453 -0.0554  0.0641
  105LA     H0Y 3050   0.125   2.436   2.964 -1.0764  0.3769 -0.7265
  105LA     H0Z 3051   0.014   2.307   3.025 -0.5611  0.1999 -1.7038
  105LA     C10 3052  -0.066   2.505   2.991 -0.3110  0.1648 -0.3744
  105LA     H11 3053  -0.045   2.607   3.022  2.5175 -0.5514  0.2891
  105LA     H12 3054  -0.157   2.483   3.046 -1.1374  2.4170 -0.8174
  105LA     C13 3055  -0.087   2.504   2.835  0.4288 -0.3012 -0.3474
  105LA     H14 3056   0.011   2.541   2.806  0.2748 -0.4304 -1.0411
  105LA     H15 3057  -0.157   2.586   2.819  0.4950 -0.2296 -0.2640
  105LA     C16 3058  -0.123   2.362   2.775  0.7473 -0.8674  1.1657
  105LA     H17 3059  -0.211   2.316   2.820 -1.5977  0.2992 -2.0375
  105LA     H18 3060  -0.050   2.281   2.781  0.6807 -0.8893  1.6668
  105LA     C19 3061  -0.168   2.372   2.624 -0.1814 -0.3477 -0.8986
  105LA     H1A 3062  -0.235   2.293   2.589  0.1192 -0.2439 -1.7151
  105LA     H1B 3063  -0.082   2.383   2.559 -1.6192  1.4060 -2.5347
  105LA     H1C 3064  -0.228   2.463   2.622 -2.6824 -1.9098  0.1076
  106ST     H00 3065   1.271   1.915   3.615 -0.1571  0.5960 -0.0407
  106ST     C01 3066   1.252   1.930   3.508 -0.1858  0.3634 -0.0689
  106ST     H02 3067   1.340   1.984   3.472  1.3777 -1.0440  1.5209
  106ST     H03 3068   1.260   1.832   3.461 -0.3192  0.2810  0.0800
  106ST     C04 3069   1.132   2.007   3.463 -0.7727  0.1198 -0.8499
  106ST     C05 3070   1.085   2.107   3.537  0.0574  0.2427  0.9738
  106ST     H06 3071   1.083   2.091   3.644  1.0972 -2.6266  0.6212
  106ST     H07 3072   0.999   2.151   3.490  1.5068  1.2617 -0.7703
  106ST     C08 3073   1.115   2.010   3.317  0.0221  0.2790  0.1159
  106ST     O09 3074   1.053   2.102   3.260 -0.3719  0.2115 -0.4543
  106ST     O0A 3075   1.171   1.912   3.251 -0.2407  0.3222 -0.2094
  106ST     C0B 3076   1.146   1.883   3.123 -0.4126 -0.5153 -0.3540
  106ST     H0C 3077   1.239   1.843   3.082  0.0795  0.1310  0.1217
  106ST     H0D 3078   1.129   1.967   3.055  1.1933  2.3164  2.6397
  106ST     C0E 3079   1.029   1.785   3.115  0.4243  0.3840  0.5858
  106ST     H0F 3080   1.042   1.712   3.195  0.6010  0.5639  0.7217
  106ST     H0G 3081   1.036   1.718   3.029  2.6109 -0.0416  1.0588
  106ST     C0H 3082   0.881   1.839   3.123 -0.8160  0.0583 -0.8750
  106ST     H0I 3083   0.872   1.917   3.199 -0.5381 -1.5926  0.8757
  106ST     H0J 3084   0.813   1.756   3.141 -1.0667  0.4257 -0.1025
  106ST     C0K 3085   0.839   1.894   2.983  0.1460 -0.4769 -0.0841
  106ST     H0M 3086   0.894   1.986   2.963  0.1977 -0.8649 -1.8504
  106ST     H0N 3087   0.866   1.818   2.910 -0.4672 -0.3036 -0.4937
  106ST     C0O 3088   0.685   1.914   2.975 -0.2366  0.2724  0.2699
  106ST     H0P 3089   0.672   1.983   3.058 -1.8439  0.3520 -0.0398
  106ST     H0Q 3090   0.628   1.823   2.994  0.6182 -0.3421 -0.0690
  106ST     C0R 3091   0.648   1.991   2.841 -0.2195  0.2954 -0.2109
  106ST     H0S 3092   0.617   1.917   2.767 -2.1525 -0.2362  1.0781
  106ST     H0T 3093   0.731   2.044   2.795 -1.0625  1.9807  0.1429
  106ST     C0U 3094   0.535   2.096   2.867 -0.1809  0.4674 -0.5874
  106ST     H0V 3095   0.551   2.163   2.951  0.5569  0.2172 -0.5205
  106ST     H0W 3096   0.451   2.039   2.906  0.7602 -0.3122  0.3253
  106ST     C0X 3097   0.497   2.179   2.740  0.2257  0.3727 -0.2256
  106ST     H0Y 3098   0.585   2.232   2.703  1.9873 -1.8774  0.6080
  106ST     H0Z 3099   0.472   2.109   2.659  0.7023  1.3572 -1.2335
  106ST     C10 3100   0.374   2.269   2.769 -0.2967  0.4013  0.0501
  106ST     H11 3101   0.289   2.207   2.796 -1.0679  0.9600 -1.0713
  106ST     H12 3102   0.395   2.338   2.851 -0.7134 -0.8397  1.2239
  106ST     C13 3103   0.330   2.353   2.650 -0.6850 -0.6139 -0.8340
  106ST     H14 3104   0.257   2.429   2.677 -0.2202  1.6109 -5.3609
  106ST     H15 3105   0.424   2.399   2.619 -1.9653  1.3985 -1.8426
  106ST     C16 3106   0.266   2.270   2.530  0.7957 -0.8711 -0.1390
  106ST     H17 3107   0.333   2.189   2.499  0.9265 -1.3997  1.4569
  106ST     H18 3108   0.169   2.232   2.563  0.4009 -0.4565 -0.8161
  106ST     C19 3109   0.227   2.370   2.419 -0.2903 -0.1531  0.5175
  106ST     H1A 3110   0.158   2.449   2.449  1.2478  0.7292  1.8047
  106ST     H1B 3111   0.319   2.424   2.401 -1.1174  0.3020 -2.5863
  106ST     C1C 3112   0.171   2.304   2.295  0.8080  0.3017  0.8558
  106ST     H1D 3113   0.131   2.384   2.232  1.3927  0.8434  1.1688
  106ST     H1E 3114   0.257   2.264   2.240  0.9128 -1.0894  2.0015
  106ST     C1F 3115   0.061   2.201   2.322  0.1274  0.9390 -0.1797
  106ST     H1G 3116   0.103   2.117   2.378 -1.5602  1.6257  2.1790
  106ST     H1H 3117  -0.017   2.247   2.383 -0.8932 -0.6043 -0.2928
  106ST     C1I 3118  -0.006   2.140   2.206  0.2305  0.7964  0.5156
  106ST     H1J 3119   0.079   2.099   2.151  1.5858  2.9525  0.9466
  106ST     H1K 3120  -0.056   2.217   2.147 -0.3912 -0.4658 -0.6220
  106ST     C1M 3121  -0.100   2.027   2.255 -0.2472  0.4369 -0.0846
  106ST     H1N 3122  -0.049   1.964   2.329  0.2669  3.0325  1.8735
  106ST     H1O 3123  -0.109   1.950   2.179  0.0256 -1.0841  1.3878
  106ST     C1P 3124  -0.241   2.086   2.293  0.4359  0.3568  0.2403
  106ST     H1Q 3125  -0.231   2.173   2.358 -0.6468 -0.0761  1.0065
  106ST     H1R 3126  -0.293   2.122   2.204 -1.7969  0.5209  1.5705
  106ST     C1S 3127  -0.331   1.973   2.350  0.2181 -0.2185 -0.0111
  106ST     H1T 3128  -0.434   2.010   2.359 -0.2636 -1.4690 -0.3317
  106ST     H1U 3129  -0.308   1.925   2.445 -1.0341 -1.6028 -0.3863
  106ST     H1V 3130  -0.341   1.886   2.285 -1.4201 -2.1737  2.7319
  107ST     H00 3131   1.324   2.293   3.680 -0.0333 -0.4122  0.6001
  107ST     C01 3132   1.295   2.217   3.607  0.8188 -0.2296  0.0702
  107ST     H02 3133   1.372   2.191   3.535  0.2323 -1.2009 -0.2188
  107ST     H03 3134   1.291   2.128   3.670  1.1770  0.2735  0.8133
  107ST     C04 3135   1.158   2.246   3.558 -0.0846 -0.0580  0.0583
  107ST     C05 3136   1.148   2.297   3.434 -0.4159  0.2680 -0.2582
  107ST     H06 3137   1.050   2.332   3.406 -0.9269  0.5457  1.7933
  107ST     H07 3138   1.215   2.249   3.363 -0.8570 -0.6354 -0.0786
  107ST     C08 3139   1.065   2.295   3.665  0.8223  0.2632  0.5744
  107ST     O09 3140   1.082   2.277   3.783  0.3018  0.2364 -0.3247
  107ST     O0A 3141   0.956   2.367   3.615 -0.1043  0.0779  0.4622
  107ST     C0B 3142   0.869   2.429   3.703 -0.4711  0.4701  0.1924
  107ST     H0C 3143   0.813   2.358   3.764 -1.4620 -0.0830 -1.3106
  107ST     H0D 3144   0.919   2.503   3.764  0.1137 -0.6064  1.0488
  107ST     C0E 3145   0.757   2.499   3.621  0.8716  0.2727 -0.4750
  107ST     H0F 3146   0.710   2.418   3.565  0.1756  0.2893  0.0771
  107ST     H0G 3147   0.806   2.567   3.551  2.1597 -0.4495 -0.2983
  107ST     C0H 3148   0.659   2.580   3.712  1.1669 -0.1977  0.4052
  107ST     H0I 3149   0.628   2.511   3.791 -2.7440  1.8935  0.8134
  107ST     H0J 3150   0.705   2.668   3.757  1.5130  1.0204 -2.2919
  107ST     C0K 3151   0.534   2.625   3.633  0.3882  0.4786  0.5395
  107ST     H0M 3152   0.486   2.547   3.575 -0.7870  1.2539  0.4715
  107ST     H0N 3153   0.454   2.647   3.703 -2.9404 -0.4566 -2.8692
  107ST     C0O 3154   0.554   2.753   3.542 -0.2571  0.4420  0.8979
  107ST     H0P 3155   0.602   2.835   3.596  2.3157 -1.1365  1.0833
  107ST     H0Q 3156   0.623   2.746   3.458 -1.4698  0.6567 -0.1267
  107ST     C0R 3157   0.425   2.800   3.483  0.6756  0.4579 -0.3707
  107ST     H0S 3158   0.385   2.710   3.437 -0.2879  0.4991  0.3620
  107ST     H0T 3159   0.344   2.824   3.552 -0.5221 -1.3077 -1.1485
  107ST     C0U 3160   0.445   2.909   3.382 -0.3228 -0.0530  0.1730
  107ST     H0V 3161   0.478   3.002   3.427  1.5606 -0.6174 -0.0011
  107ST     H0W 3162   0.528   2.900   3.312 -1.1798 -1.0138 -0.7419
  107ST     C0X 3163   0.309   2.931   3.310 -0.0553  0.3908  0.4425
  107ST     H0Y 3164   0.222   2.937   3.375  0.1661 -1.6151  0.9482
  107ST     H0Z 3165   0.312   3.012   3.237 -1.3942 -0.0500 -0.1222
  107ST     C10 3166   0.276   2.827   3.204  0.7466  1.1585 -0.1645
  107ST     H11 3167   0.290   2.729   3.249  1.3279  1.4670  0.3388
  107ST     H12 3168   0.168   2.835   3.190  0.5337 -0.6756  0.3733
  107ST     C13 3169   0.346   2.843   3.063  0.6326 -0.0853  0.3209
  107ST     H14 3170   0.347   2.944   3.023 -2.7742  0.5116  1.5458
  107ST     H15 3171   0.452   2.827   3.083  0.9150  0.1479 -0.9559
  107ST     C16 3172   0.279   2.753   2.966 -0.3540  0.3876  0.4068
  107ST     H17 3173   0.274   2.650   3.001 -0.6512 -0.6929 -2.6543
  107ST     H18 3174   0.176   2.782   2.945 -0.2496  2.4806  2.5667
  107ST     C19 3175   0.349   2.726   2.837  0.1898  0.1712 -0.0888
  107ST     H1A 3176   0.455   2.714   2.858  0.1475 -1.8055 -0.8823
  107ST     H1B 3177   0.312   2.630   2.801  0.7207 -0.3525  0.7179
  107ST     C1C 3178   0.332   2.839   2.739 -0.7783 -0.3811  0.0645
  107ST     H1D 3179   0.230   2.875   2.753 -1.3081 -2.6316  2.1819
  107ST     H1E 3180   0.405   2.915   2.768 -0.7232 -0.9870  1.5635
  107ST     C1F 3181   0.353   2.816   2.584  0.8044  0.4395  0.0078
  107ST     H1G 3182   0.353   2.911   2.531  0.6744  0.0260 -0.7401
  107ST     H1H 3183   0.454   2.777   2.585  1.5632  2.3511  1.6529
  107ST     C1I 3184   0.250   2.721   2.529  0.0971  0.1722  0.2000
  107ST     H1J 3185   0.239   2.632   2.591  2.3944  0.4528  1.0357
  107ST     H1K 3186   0.284   2.669   2.439  0.6569  1.4894 -0.3501
  107ST     C1M 3187   0.120   2.785   2.502  0.1942  0.6978  0.1533
  107ST     H1N 3188   0.141   2.859   2.424  0.1762 -0.7456 -1.2476
  107ST     H1O 3189   0.090   2.844   2.589  0.5009  1.6842 -0.4056
  107ST     C1P 3190   0.013   2.692   2.455  0.5147  0.4013 -0.3472
  107ST     H1Q 3191   0.049   2.663   2.356  2.1804  2.2147 -0.3040
  107ST     H1R 3192   0.006   2.604   2.518  1.1159 -0.3414 -1.3030
  107ST     C1S 3193  -0.125   2.763   2.438  0.0315 -0.0416  0.5909
  107ST     H1T 3194  -0.149   2.811   2.533  0.2256 -1.6964  1.5078
  107ST     H1U 3195  -0.208   2.698   2.412 -0.2171  0.8466 -0.8663
  107ST     H1V 3196  -0.120   2.834   2.356 -0.9848  2.2438  2.4623
  108ST     H00 3197   1.399   2.306   3.352 -0.6052  0.3067 -0.1225
  108ST     C01 3198   1.370   2.402   3.396  0.0925  0.2613  0.4400
  108ST     H02 3199   1.432   2.400   3.486  0.6830  1.5130  0.0711
  108ST     H03 3200   1.409   2.479   3.329  1.2545 -0.7970 -0.1305
  108ST     C04 3201   1.220   2.439   3.408 -0.4837 -0.2324  0.3535
  108ST     C05 3202   1.185   2.517   3.512  0.1389 -0.0538  0.1518
  108ST     H06 3203   1.230   2.481   3.603  4.0333  0.4052 -1.4867
  108ST     H07 3204   1.082   2.547   3.521  0.0612  0.1921 -1.4753
  108ST     C08 3205   1.145   2.460   3.282  0.9637 -0.2413  0.1410
  108ST     O09 3206   1.039   2.520   3.272 -0.4909  0.3059  0.8029
  108ST     O0A 3207   1.213   2.415   3.175  0.0487 -0.0802  0.0240
  108ST     C0B 3208   1.166   2.433   3.042  0.1017  0.1535 -0.2606
  108ST     H0C 3209   1.086   2.359   3.036  2.1939 -2.1405 -0.7268
  108ST     H0D 3210   1.110   2.523   3.016 -1.0324 -0.2501  0.7338
  108ST     C0E 3211   1.270   2.400   2.926  0.2534  0.3957  0.1786
  108ST     H0F 3212   1.346   2.478   2.924  0.3206  0.3348  0.3834
  108ST     H0G 3213   1.221   2.405   2.829  0.1712  1.5432  0.2705
  108ST     C0H 3214   1.340   2.263   2.942  0.2185 -0.0106  0.6129
  108ST     H0I 3215   1.279   2.181   2.980 -2.2775  1.6015  0.1874
  108ST     H0J 3216   1.414   2.279   3.021  0.6893  0.4502  0.0877
  108ST     C0K 3217   1.412   2.223   2.807 -0.0740 -0.1897 -0.3270
  108ST     H0M 3218   1.471   2.308   2.775  0.7484 -0.6674 -0.0984
  108ST     H0N 3219   1.484   2.143   2.826  2.3126  1.9640 -0.0698
  108ST     C0O 3220   1.316   2.178   2.696  0.0321 -0.5168 -0.3922
  108ST     H0P 3221   1.363   2.214   2.605 -2.2448 -1.0628 -1.8113
  108ST     H0Q 3222   1.216   2.217   2.713 -0.2246 -1.5816  0.6802
  108ST     C0R 3223   1.317   2.032   2.675  0.5870 -0.3173  0.7698
  108ST     H0S 3224   1.257   1.983   2.753  0.9511 -0.9946  0.6306
  108ST     H0T 3225   1.415   1.987   2.687 -0.0392 -1.7710  0.5484
  108ST     C0U 3226   1.245   2.008   2.536  0.2966  0.2691 -0.6872
  108ST     H0V 3227   1.221   1.902   2.537  1.6922 -0.0491  1.0930
  108ST     H0W 3228   1.309   2.034   2.451  0.1437 -0.5760 -1.0686
  108ST     C0X 3229   1.116   2.082   2.500  0.0684  0.0011 -0.2123
  108ST     H0Y 3230   1.030   2.068   2.567 -0.6054  1.3387 -0.7752
  108ST     H0Z 3231   1.127   2.190   2.513 -1.0805 -0.1685  2.6287
  108ST     C10 3232   1.076   2.052   2.352  0.4997 -0.2675  0.1331
  108ST     H11 3233   1.158   2.076   2.284  2.3805 -0.2176  2.3299
  108ST     H12 3234   1.055   1.946   2.337 -2.0254  0.2898 -0.4683
  108ST     C13 3235   0.950   2.125   2.303 -0.8300  0.5523 -0.1519
  108ST     H14 3236   0.957   2.233   2.307 -2.4808  0.7400 -1.6388
  108ST     H15 3237   0.945   2.101   2.197 -0.2895 -2.5621  0.4552
  108ST     C16 3238   0.825   2.071   2.362 -0.4154  0.9646 -0.7194
  108ST     H17 3239   0.829   1.962   2.351  1.5127  1.0333 -0.7743
  108ST     H18 3240   0.822   2.093   2.469  2.4957 -1.4599 -0.0950
  108ST     C19 3241   0.704   2.142   2.290  0.1415 -0.0524 -0.2342
  108ST     H1A 3242   0.723   2.249   2.297  1.2254 -0.1944 -0.9436
  108ST     H1B 3243   0.703   2.108   2.186  0.6851  1.3721 -0.7236
  108ST     C1C 3244   0.568   2.105   2.335  0.4193  0.3269 -0.3877
  108ST     H1D 3245   0.562   2.118   2.444  2.3147 -0.5250 -0.1599
  108ST     H1E 3246   0.490   2.176   2.306 -0.8251 -0.6894  0.4132
  108ST     C1F 3247   0.527   1.962   2.303  0.5576  0.6782  0.6255
  108ST     H1G 3248   0.514   1.958   2.195 -1.3543 -1.8637  0.8728
  108ST     H1H 3249   0.603   1.894   2.340  2.1034  3.5708  3.0071
  108ST     C1I 3250   0.387   1.935   2.371  0.6860  0.3922 -0.2435
  108ST     H1J 3251   0.308   1.983   2.315 -0.0187 -0.5648 -0.0779
  108ST     H1K 3252   0.357   1.961   2.472  1.5663 -0.2316  0.1888
  108ST     C1M 3253   0.355   1.786   2.364 -0.0417 -0.5867 -0.1462
  108ST     H1N 3254   0.289   1.748   2.443 -1.7112 -1.6559 -2.0179
  108ST     H1O 3255   0.442   1.724   2.391 -0.9042 -1.0277  1.7204
  108ST     C1P 3256   0.306   1.738   2.229 -0.6709  0.2857  1.1509
  108ST     H1Q 3257   0.223   1.803   2.199 -0.4491  1.1551  2.3975
  108ST     H1R 3258   0.384   1.741   2.153 -1.4173 -2.0875  0.2497
  108ST     C1S 3259   0.249   1.601   2.236  0.2257  0.1291  0.1789
  108ST     H1T 3260   0.180   1.589   2.319  1.4742  1.0936  1.3920
  108ST     H1U 3261   0.319   1.518   2.250 -0.4222 -0.0854  2.3276
  108ST     H1V 3262   0.192   1.578   2.147 -0.1184 -0.4553  0.5442
  109EH     H00 3263   1.456   2.631   3.470  0.4752  1.1379  0.2051
  109EH     C01 3264   1.398   2.644   3.561  0.4247  0.4098  0.2792
  109EH     H02 3265   1.415   2.571   3.640 -1.6110  0.5010  0.8473
  109EH     H03 3266   1.427   2.741   3.602  0.7354 -0.0127  1.0842
  109EH     C04 3267   1.240   2.666   3.531  0.2985 -0.1927  0.1020
  109EH     C05 3268   1.200   2.724   3.418 -0.3412 -0.1728  0.3537
  109EH     H06 3269   1.094   2.727   3.397 -0.1590  1.3583 -0.4241
  109EH     H07 3270   1.255   2.684   3.334 -0.9769 -2.2540  0.9130
  109EH     C08 3271   1.162   2.696   3.653 -0.6764  0.3657 -0.9637
  109EH     O09 3272   1.046   2.737   3.655 -0.5310  0.0391  0.6619
  109EH     O0A 3273   1.242   2.687   3.756 -0.0110 -0.3105  0.0663
  109EH     C0B 3274   1.191   2.716   3.885  0.1357 -0.3621 -0.3346
  109EH     H0C 3275   1.095   2.668   3.900 -0.8414  0.4079 -3.8045
  109EH     H0D 3276   1.182   2.825   3.893  1.2490 -0.3295  0.7304
  109EH     C0E 3277   1.300   2.654   3.975 -0.2035  0.6519  0.6686
  109EH     H0F 3278   1.391   2.692   3.928  0.1841 -0.5197  0.4613
  109EH     C0G 3279   1.304   2.706   4.118 -0.3051  0.3038 -0.2292
  109EH     H0H 3280   1.313   2.815   4.109  1.8755  0.0819 -0.8963
  109EH     H0I 3281   1.396   2.679   4.169  0.7971 -0.3560 -2.4927
  109EH     C0J 3282   1.173   2.694   4.196  0.0649  0.4329 -0.2702
  109EH     H0K 3283   1.085   2.716   4.136 -1.1906 -2.4918  0.3990
  109EH     H0M 3284   1.178   2.756   4.286 -1.8329 -0.9928  0.8444
  109EH     H0N 3285   1.157   2.596   4.242 -0.7141  0.6285 -0.1131
  109EH     C0O 3286   1.291   2.500   3.955  0.5296  0.5596  0.5219
  109EH     H0P 3287   1.189   2.476   3.989  1.1906 -0.1995  2.0351
  109EH     H0Q 3288   1.298   2.474   3.850 -0.9815  0.4933  0.4200
  109EH     C0R 3289   1.381   2.418   4.052  0.4222 -0.5011  0.2983
  109EH     H0S 3290   1.362   2.441   4.157  0.0836 -1.6775  0.4939
  109EH     H0T 3291   1.482   2.456   4.036  0.8304 -1.6652  0.0864
  109EH     C0U 3292   1.373   2.266   4.014 -0.2184  0.3174  0.3686
  109EH     H0V 3293   1.398   2.269   3.908 -1.0887  0.7328  0.1759
  109EH     H0W 3294   1.461   2.219   4.058 -0.3586 -0.0536  0.2508
  109EH     C0X 3295   1.251   2.191   4.071  0.0896 -0.6608 -0.1684
  109EH     H0Y 3296   1.258   2.171   4.178 -0.9894 -2.6571 -0.4450
  109EH     H0Z 3297   1.245   2.100   4.011  2.8335 -0.4024 -0.9005
  109EH     H10 3298   1.158   2.241   4.043  0.5327  1.2535  1.6564
  110LA     H00 3299   1.172   2.995   3.570 -3.7852  0.2181  1.1152
  110LA     C01 3300   1.133   2.955   3.477  0.3596 -0.2163 -0.5135
  110LA     H02 3301   1.038   2.905   3.498  0.6142  0.2336  1.7616
  110LA     H03 3302   1.102   3.036   3.412  1.9893  0.1115 -0.8979
  110LA     C04 3303   1.221   2.877   3.377  0.4912 -0.3065 -0.7675
  110LA     C05 3304   1.360   2.904   3.374 -0.5561 -0.5298 -0.5874
  110LA     H06 3305   1.394   2.906   3.477 -2.4384  2.1287  0.0392
  110LA     H07 3306   1.408   2.857   3.290 -0.0159  2.5438 -2.0766
  110LA     C08 3307   1.152   2.855   3.248  0.4695 -0.0384 -0.6317
  110LA     O09 3308   1.211   2.811   3.154  0.1364  0.1592  0.1590
  110LA     O0A 3309   1.022   2.899   3.246 -0.2296 -0.1374 -0.1489
  110LA     C0B 3310   0.957   2.913   3.120 -0.0749 -0.2456  0.6209
  110LA     H0C 3311   0.985   2.834   3.050 -1.8576  0.6146 -1.0833
  110LA     H0D 3312   0.996   2.995   3.061 -0.6676 -0.4291 -0.0318
  110LA     C0E 3313   0.807   2.904   3.143  0.3063  0.5772 -0.0197
  110LA     H0F 3314   0.775   2.963   3.229  0.7602  0.6317  0.1112
  110LA     H0G 3315   0.753   2.944   3.057 -0.0697  0.9629  0.3890
  110LA     C0H 3316   0.766   2.752   3.171  0.0960 -0.7323  0.3456
  110LA     H0I 3317   0.847   2.698   3.219 -0.0236  0.5307  1.9987
  110LA     H0J 3318   0.693   2.754   3.252  0.7586 -1.4374  0.9592
  110LA     C0K 3319   0.728   2.679   3.048  0.4073  0.0290  0.0402
  110LA     H0M 3320   0.658   2.718   2.973 -1.2792 -1.7916  0.6093
  110LA     H0N 3321   0.819   2.653   2.995 -0.0698  1.7657 -1.7097
  110LA     C0O 3322   0.670   2.543   3.089  0.7419 -0.1182 -0.1140
  110LA     H0P 3323   0.717   2.490   3.171 -0.0179 -1.7219 -0.6910
  110LA     H0Q 3324   0.568   2.554   3.128  1.0935 -0.9852  1.0751
  110LA     C0R 3325   0.664   2.450   2.962  0.0235 -0.0927  0.0149
  110LA     H0S 3326   0.573   2.391   2.964 -0.0145 -0.0132  0.5508
  110LA     H0T 3327   0.651   2.506   2.869 -0.0949  1.1088  0.7411
  110LA     C0U 3328   0.793   2.360   2.971 -0.3150 -0.2031 -0.5776
  110LA     H0V 3329   0.868   2.404   3.037 -2.1089 -0.0868  1.4286
  110LA     H0W 3330   0.769   2.267   3.023 -0.4713 -0.2556 -0.7448
  110LA     C0X 3331   0.866   2.339   2.831 -0.2903  0.4344 -0.2467
  110LA     H0Y 3332   0.950   2.270   2.836 -1.8740 -1.3878  2.1982
  110LA     H0Z 3333   0.801   2.299   2.752 -0.1913 -0.5137  0.1523
  110LA     C10 3334   0.935   2.466   2.775 -0.4595  0.6848  0.0731
  110LA     H11 3335   1.016   2.507   2.835  0.3064  0.0848 -0.5490
  110LA     H12 3336   0.860   2.545   2.781  0.4782  1.5796  0.1569
  110LA     C13 3337   0.989   2.455   2.637 -0.0795 -0.3730 -0.1351
  110LA     H14 3338   0.927   2.385   2.581 -1.3181 -0.4036  1.2325
  110LA     H15 3339   1.088   2.412   2.643 -0.1445 -0.8713 -2.2427
  110LA     C16 3340   0.998   2.591   2.565 -0.2414 -0.4766 -0.6415
  110LA     H17 3341   1.065   2.588   2.479  1.5417  0.2092  0.6974
  110LA     H18 3342   1.045   2.651   2.643 -0.2742 -0.1536 -0.8704
  110LA     C19 3343   0.873   2.657   2.526  0.0414  0.1283 -0.3221
  110LA     H1A 3344   0.800   2.645   2.606  1.2048 -0.2540  0.6994
  110LA     H1B 3345   0.826   2.624   2.434 -0.4547 -1.4475  0.4665
  110LA     H1C 3346   0.882   2.765   2.514 -1.3499  0.4694  1.4139
  111ST     H00 3347   1.466   3.211   3.483 -0.0624  0.2175 -1.3881
  111ST     C01 3348   1.387   3.136   3.478  0.0578 -0.1200  1.0514
  111ST     H02 3349   1.365   3.085   3.571  1.6100 -1.4267  0.7380
  111ST     H03 3350   1.302   3.201   3.459 -0.0511 -1.1792 -2.5063
  111ST     C04 3351   1.413   3.051   3.347 -0.0806 -0.3541 -0.3362
  111ST     C05 3352   1.342   3.078   3.232 -0.3094 -0.7157 -0.8777
  111ST     H06 3353   1.239   3.096   3.258  0.2034  2.2757 -0.7491
  111ST     H07 3354   1.372   3.006   3.157 -1.0277 -1.4937 -0.4220
  111ST     C08 3355   1.555   3.008   3.337  0.4650 -0.3017  0.9153
  111ST     O09 3356   1.612   2.965   3.240  0.2491 -0.0306  0.4504
  111ST     O0A 3357   1.611   3.011   3.458 -0.0580  0.3357  0.2338
  111ST     C0B 3358   1.752   2.990   3.461  0.0726 -0.5053  0.9656
  111ST     H0C 3359   1.776   2.907   3.394  1.6834 -1.5198  2.7586
  111ST     H0D 3360   1.802   3.077   3.419 -0.8514 -1.2202 -1.7400
  111ST     C0E 3361   1.788   2.961   3.606 -0.1423  0.6261 -0.9109
  111ST     H0F 3362   1.738   2.872   3.647  1.8829 -0.6330 -1.0944
  111ST     H0G 3363   1.741   3.039   3.665  0.4621 -0.5453  1.1688
  111ST     C0H 3364   1.937   2.969   3.632 -0.0482  0.6097 -0.4151
  111ST     H0I 3365   1.982   2.880   3.589  0.3585  0.5629  0.1077
  111ST     H0J 3366   1.950   2.959   3.740  1.2440  0.5674 -0.5671
  111ST     C0K 3367   2.022   3.087   3.575  0.0036  0.7515  0.0794
  111ST     H0M 3368   2.126   3.059   3.593  0.2677  0.8948 -1.2017
  111ST     H0N 3369   2.026   3.084   3.466 -2.0534  0.9875 -0.0257
  111ST     C0O 3370   1.999   3.223   3.640  0.6605 -0.5817 -0.1125
  111ST     H0P 3371   2.087   3.287   3.630 -0.2242  0.4051 -1.7310
  111ST     H0Q 3372   1.970   3.216   3.745  0.7417 -0.9682 -0.1159
  111ST     C0R 3373   1.886   3.297   3.572 -0.2678 -0.2454 -0.0081
  111ST     H0S 3374   1.793   3.241   3.572  0.0664 -0.8034  0.0585
  111ST     H0T 3375   1.910   3.303   3.465  2.2083  1.2056  0.5828
  111ST     C0U 3376   1.872   3.444   3.621  0.3225 -0.5598  0.2421
  111ST     H0V 3377   1.958   3.506   3.598  0.4043 -1.7054 -2.7860
  111ST     H0W 3378   1.864   3.441   3.730  1.2823 -0.5580  0.3162
  111ST     C0X 3379   1.752   3.506   3.550  0.6143 -0.1978 -0.2548
  111ST     H0Y 3380   1.757   3.492   3.442  1.1530 -0.5871 -0.1788
  111ST     H0Z 3381   1.661   3.455   3.580  2.1088 -2.0067  1.2730
  111ST     C10 3382   1.734   3.654   3.587  0.1360 -0.3029 -0.1577
  111ST     H11 3383   1.695   3.659   3.688 -0.2522  0.0914 -0.3301
  111ST     H12 3384   1.830   3.705   3.580 -0.1562  0.1482 -0.9010
  111ST     C13 3385   1.638   3.723   3.485  0.9763 -0.0901  0.2070
  111ST     H14 3386   1.659   3.694   3.383  0.8117 -1.4749  0.5589
  111ST     H15 3387   1.539   3.685   3.512  2.3570 -2.7190  1.7357
  111ST     C16 3388   1.631   3.875   3.501  0.2124  0.3234  0.0790
  111ST     H17 3389   1.591   3.898   3.600  0.1430  1.1371 -0.1308
  111ST     H18 3390   1.728   3.925   3.495  0.2100  0.3661  0.3804
  111ST     C19 3391   1.535   3.943   3.396  0.0932 -0.0704 -0.1464
  111ST     H1A 3392   1.558   3.915   3.294  0.4443  1.0060 -0.3676
  111ST     H1B 3393   1.439   3.895   3.414 -0.2945  0.8935  0.4306
  111ST     C1C 3394   1.508   4.092   3.404  0.0729  0.2686  0.4218
  111ST     H1D 3395   1.428   4.113   3.333  1.6480  1.2468 -1.0933
  111ST     H1E 3396   1.483   4.123   3.505 -1.0508  0.0987  0.2012
  111ST     C1F 3397   1.624   4.185   3.358 -0.2260 -0.1752  0.5732
  111ST     H1G 3398   1.704   4.192   3.432 -0.4526 -1.4590  0.9551
  111ST     H1H 3399   1.667   4.138   3.271 -2.6672  1.9953 -1.9089
  111ST     C1I 3400   1.571   4.319   3.303 -0.2091  0.0227  0.6317
  111ST     H1J 3401   1.474   4.346   3.345 -0.7279  1.1790 -1.2197
  111ST     H1K 3402   1.544   4.294   3.200 -0.6734 -3.4789  1.5680
  111ST     C1M 3403   1.669   4.429   3.308 -0.0986 -0.1695 -0.5142
  111ST     H1N 3404   1.748   4.396   3.240 -0.7788 -0.0027 -1.3880
  111ST     H1O 3405   1.709   4.439   3.409 -0.5559  3.7823 -0.6487
  111ST     C1P 3406   1.604   4.558   3.266 -0.2300 -0.2496 -0.2946
  111ST     H1Q 3407   1.540   4.566   3.178 -0.4669  3.0596  0.1147
  111ST     H1R 3408   1.552   4.613   3.344  1.3339  0.5189  0.2208
  111ST     C1S 3409   1.711   4.659   3.231 -0.5139 -0.0949 -0.0452
  111ST     H1T 3410   1.797   4.645   3.295  1.5785  2.3371 -2.1629
  111ST     H1U 3411   1.676   4.760   3.255 -0.2631 -0.5164  2.1718
  111ST     H1V 3412   1.755   4.647   3.131 -0.6332 -0.0816 -0.0998
  112EH     H00 3413   1.544   3.259   3.008 -0.0461 -1.6975 -1.4293
  112EH     C01 3414   1.521   3.203   3.098  0.3748 -0.2296 -0.3917
  112EH     H02 3415   1.554   3.109   3.054 -1.2013 -1.0490  0.1433
  112EH     H03 3416   1.587   3.229   3.181 -0.2483 -2.0238  0.7105
  112EH     C04 3417   1.378   3.217   3.146  0.1210  0.4931  0.1807
  112EH     C05 3418   1.334   3.314   3.235 -0.5194 -0.7255 -0.1084
  112EH     H06 3419   1.230   3.300   3.261 -0.8801 -1.4809 -1.8479
  112EH     H07 3420   1.404   3.334   3.314  1.3830  0.8835 -2.1461
  112EH     C08 3421   1.280   3.177   3.045  0.1898  0.3375 -0.3438
  112EH     O09 3422   1.153   3.188   3.058  0.1177 -0.2514 -0.1521
  112EH     O0A 3423   1.340   3.139   2.934  0.8112  0.1293 -0.1128
  112EH     C0B 3424   1.265   3.124   2.814 -0.2320 -0.4928  0.6014
  112EH     H0C 3425   1.225   3.218   2.777 -0.5267 -1.8360 -2.6585
  112EH     H0D 3426   1.175   3.062   2.824  0.3509 -1.9806 -2.7803
  112EH     C0E 3427   1.356   3.052   2.721  0.1332  0.3591 -0.4344
  112EH     H0F 3428   1.450   3.108   2.721 -0.5234  1.4797  0.2442
  112EH     C0G 3429   1.396   2.910   2.768  0.4331 -0.6208 -0.4159
  112EH     H0H 3430   1.431   2.918   2.870  1.5735  1.8270 -0.9724
  112EH     H0I 3431   1.476   2.867   2.708  0.0341 -0.8043 -0.8263
  112EH     C0J 3432   1.287   2.804   2.761 -0.1048 -0.7029 -0.1896
  112EH     H0K 3433   1.252   2.797   2.658 -0.0405 -2.8805 -0.0980
  112EH     H0M 3434   1.198   2.828   2.819  0.7482  2.0614  0.0281
  112EH     H0N 3435   1.320   2.704   2.789  3.0376  0.2188 -0.4263
  112EH     C0O 3436   1.302   3.043   2.582  0.4129 -0.3264  0.0697
  112EH     H0P 3437   1.204   2.995   2.576 -0.7745  2.0921 -0.2278
  112EH     H0Q 3438   1.291   3.145   2.546  2.1871 -0.2070 -0.1574
  112EH     C0R 3439   1.411   2.993   2.479  0.8022 -0.2969  1.1447
  112EH     H0S 3440   1.449   2.892   2.496 -1.3323 -1.4092 -0.4988
  112EH     H0T 3441   1.503   3.051   2.486 -0.4305  1.9575 -0.5464
  112EH     C0U 3442   1.363   2.990   2.337 -0.4480 -0.8751  0.1141
  112EH     H0V 3443   1.261   2.953   2.331 -1.0786  0.8094  0.0764
  112EH     H0W 3444   1.363   3.094   2.302  1.5016 -0.6410  0.7253
  112EH     C0X 3445   1.453   2.918   2.242  1.1732 -0.5481  0.2470
  112EH     H0Y 3446   1.451   2.811   2.264 -0.3093 -0.9515 -1.7414
  112EH     H0Z 3447   1.552   2.964   2.246  1.0734 -0.3980  1.0620
  112EH     H10 3448   1.427   2.932   2.137  2.5604 -2.2564 -0.3623
  113LA     H00 3449   1.535   3.445   3.145  1.3095 -0.5775  1.6966
  113LA     C01 3450   1.478   3.504   3.217 -0.4488 -0.3150  0.1120
  113LA     H02 3451   1.523   3.502   3.316  0.6007 -0.5180 -0.3552
  113LA     H03 3452   1.472   3.608   3.186  0.3535 -0.1116  0.6296
  113LA     C04 3453   1.331   3.462   3.202  0.2125 -0.6469 -0.1641
  113LA     C05 3454   1.270   3.459   3.084 -1.0345 -0.5599  0.3079
  113LA     H06 3455   1.338   3.422   3.009  0.7623  0.0970  1.5966
  113LA     H07 3456   1.168   3.425   3.092 -1.3279 -0.3116 -2.1972
  113LA     C08 3457   1.252   3.492   3.322 -0.6960 -0.2192  0.0814
  113LA     O09 3458   1.306   3.506   3.432 -0.2543  0.2574 -0.1869
  113LA     O0A 3459   1.115   3.486   3.304  0.3733  0.0320 -0.4462
  113LA     C0B 3460   1.020   3.504   3.412  0.4450  0.3637 -0.1964
  113LA     H0C 3461   0.951   3.583   3.381  0.0343  0.4608  0.9493
  113LA     H0D 3462   1.075   3.528   3.503 -0.3910  0.0318  0.4045
  113LA     C0E 3463   0.925   3.381   3.422  0.0618 -0.4605 -0.4981
  113LA     H0F 3464   0.991   3.297   3.444  0.1450 -0.8390 -2.1720
  113LA     H0G 3465   0.863   3.402   3.509 -0.2312  1.3250 -1.1266
  113LA     C0H 3466   0.847   3.355   3.295  0.0790  1.3025 -0.0042
  113LA     H0I 3467   0.776   3.438   3.286 -1.3050  0.0630 -0.8425
  113LA     H0J 3468   0.902   3.332   3.204 -1.1398 -0.6418 -0.2793
  113LA     C0K 3469   0.755   3.236   3.308  0.1644  0.3241 -0.6562
  113LA     H0M 3470   0.724   3.191   3.214 -1.8492 -1.8453  0.9767
  113LA     H0N 3471   0.811   3.153   3.352 -0.2793  0.1813 -0.3495
  113LA     C0O 3472   0.638   3.260   3.410 -0.8528 -0.0533  0.8888
  113LA     H0P 3473   0.607   3.158   3.434 -1.6712 -0.1335 -0.4719
  113LA     H0Q 3474   0.681   3.308   3.498  3.6542  0.9136 -1.6792
  113LA     C0R 3475   0.517   3.334   3.362 -0.3392 -0.1677  0.2252
  113LA     H0S 3476   0.541   3.430   3.317 -0.6772 -0.8974 -1.5296
  113LA     H0T 3477   0.473   3.274   3.283 -1.6657 -0.7842  1.4215
  113LA     C0U 3478   0.415   3.360   3.477  0.0508 -0.0464 -0.4751
  113LA     H0V 3479   0.386   3.269   3.529  0.7818  0.8838  1.6304
  113LA     H0W 3480   0.453   3.425   3.556 -0.5948  0.1339 -0.3057
  113LA     C0X 3481   0.278   3.426   3.439  0.2681  0.0638  0.7276
  113LA     H0Y 3482   0.232   3.455   3.533 -1.6493 -1.3649  0.2568
  113LA     H0Z 3483   0.287   3.520   3.385  0.4293  0.3904  1.3247
  113LA     C10 3484   0.182   3.329   3.368 -0.2108  0.0141  0.2926
  113LA     H11 3485   0.203   3.233   3.416  2.2662  0.5930  0.3961
  113LA     H12 3486   0.205   3.328   3.262  0.5776  0.2713  0.4625
  113LA     C13 3487   0.033   3.364   3.389  0.2140  0.1547 -0.0819
  113LA     H14 3488   0.008   3.459   3.342 -0.7490 -0.0911 -0.0644
  113LA     H15 3489   0.004   3.373   3.493 -2.0355 -1.2234 -0.5711
  113LA     C16 3490  -0.060   3.263   3.322  0.8887  0.7805  0.6273
  113LA     H17 3491  -0.016   3.234   3.226 -1.2059  2.1897 -0.7957
  113LA     H18 3492  -0.144   3.312   3.273  1.2997 -1.1379 -2.1150
  113LA     C19 3493  -0.102   3.147   3.411 -0.8659 -1.0079  0.1690
  113LA     H1A 3494  -0.039   3.058   3.400  0.6754 -0.0405  1.0691
  113LA     H1B 3495  -0.206   3.126   3.385 -1.1925  3.1719 -2.1564
  113LA     H1C 3496  -0.086   3.165   3.518 -0.8719  2.6656 -0.3892
  114EH     H00 3497   1.111   3.712   3.135  0.0446 -1.3012 -0.3826
  114EH     C01 3498   1.210   3.713   3.090  0.3805 -0.9041  0.3598
  114EH     H02 3499   1.241   3.807   3.044 -0.8020 -0.3661  0.6443
  114EH     H03 3500   1.285   3.705   3.169  1.2093  0.3682 -0.2748
  114EH     C04 3501   1.227   3.587   2.993  0.0239 -0.3298 -0.7252
  114EH     C05 3502   1.101   3.536   2.955 -0.1660  0.2320  0.0899
  114EH     H06 3503   1.119   3.444   2.901 -2.1561  0.5412 -1.1539
  114EH     H07 3504   1.023   3.542   3.029  1.5306 -0.0264  1.9566
  114EH     C08 3505   1.345   3.594   2.900  0.0361  0.2027 -0.3206
  114EH     O09 3506   1.442   3.669   2.922 -0.0570 -0.4850 -0.0869
  114EH     O0A 3507   1.347   3.507   2.797  0.3145 -0.2037  0.5763
  114EH     C0B 3508   1.469   3.456   2.740  0.1628  0.4448  0.0518
  114EH     H0C 3509   1.450   3.359   2.695  0.3230 -0.5569  2.0981
  114EH     H0D 3510   1.536   3.436   2.823  2.5171  0.4185 -1.8050
  114EH     C0E 3511   1.543   3.555   2.646  0.2726 -0.4507 -0.4882
  114EH     H0F 3512   1.556   3.650   2.696 -1.2946 -0.9980  0.9951
  114EH     C0G 3513   1.689   3.519   2.608 -0.1491  0.0283  0.5404
  114EH     H0H 3514   1.760   3.539   2.688  0.7348 -0.1251 -0.2006
  114EH     H0I 3515   1.717   3.597   2.537 -1.5430  0.8660  0.8928
  114EH     C0J 3516   1.704   3.377   2.554 -0.2544 -0.2605 -0.1145
  114EH     H0K 3517   1.632   3.337   2.483  0.6502  0.6222 -1.5756
  114EH     H0M 3518   1.679   3.304   2.631 -0.5560  1.6376  1.6454
  114EH     H0N 3519   1.806   3.366   2.515  0.8495 -0.4654  2.6845
  114EH     C0O 3520   1.454   3.600   2.523  0.6285 -0.1072 -0.1816
  114EH     H0P 3521   1.428   3.524   2.449  0.8293  1.4904 -1.9541
  114EH     H0Q 3522   1.360   3.627   2.570 -0.3051 -1.9476 -0.9560
  114EH     C0R 3523   1.502   3.725   2.452 -0.5012  0.7865  0.4528
  114EH     H0S 3524   1.591   3.693   2.398 -0.9158  1.4670 -0.6698
  114EH     H0T 3525   1.533   3.795   2.530 -1.3991  0.0857  1.4536
  114EH     C0U 3526   1.396   3.792   2.369 -0.3939 -0.3423  0.2632
  114EH     H0V 3527   1.312   3.805   2.437 -1.8752  1.5984 -1.8705
  114EH     H0W 3528   1.428   3.886   2.323 -0.1639 -0.8675 -0.6604
  114EH     C0X 3529   1.356   3.713   2.248 -0.2784 -0.0908  0.3903
  114EH     H0Y 3530   1.445   3.675   2.196  1.8591  2.2161  2.2053
  114EH     H0Z 3531   1.289   3.757   2.175  1.4689 -0.3615 -1.4376
  114EH     H10 3532   1.303   3.623   2.277 -0.4880 -0.5656 -1.3993
  115EH     H00 3533   1.013   3.787   2.955 -1.8818 -2.1538 -0.0092
  115EH     C01 3534   1.037   3.756   2.854  0.4226  0.3043 -0.2899
  115EH     H02 3535   0.971   3.819   2.794 -0.6545  0.1446  0.7082
  115EH     H03 3536   1.137   3.781   2.818  0.3503 -0.6403 -1.1955
  115EH     C04 3537   1.009   3.604   2.848 -0.4648 -0.5189  0.4074
  115EH     C05 3538   1.049   3.541   2.728  0.2651 -0.0863 -0.2640
  115EH     H06 3539   1.023   3.436   2.717  1.4457 -0.4715  0.5117
  115EH     H07 3540   1.147   3.571   2.694  0.0789  0.3298 -0.4399
  115EH     C08 3541   0.886   3.555   2.914 -0.0145  0.2121  0.3104
  115EH     O09 3542   0.845   3.443   2.897  0.2421 -0.2490  0.0458
  115EH     O0A 3543   0.814   3.660   2.961  0.2076  0.4862 -0.2635
  115EH     C0B 3544   0.684   3.636   3.016 -0.0244  0.2164  0.2025
  115EH     H0C 3545   0.701   3.560   3.092 -0.2444 -0.2575 -0.2198
  115EH     H0D 3546   0.619   3.606   2.934  0.0847  1.5367 -0.3819
  115EH     C0E 3547   0.643   3.761   3.078  0.2795 -0.0459 -0.3244
  115EH     H0F 3548   0.558   3.739   3.142  1.5336 -0.6191  1.1855
  115EH     C0G 3549   0.754   3.823   3.174  0.0138 -0.1361 -0.9381
  115EH     H0H 3550   0.814   3.894   3.117  3.7736  0.1557  3.0844
  115EH     H0I 3551   0.819   3.740   3.203 -0.1658 -0.0231 -0.2000
  115EH     C0J 3552   0.706   3.891   3.301 -0.1775  0.3973  0.4406
  115EH     H0K 3553   0.609   3.940   3.285  0.0222  0.7608  0.3274
  115EH     H0M 3554   0.775   3.957   3.354  0.5618 -1.1205  1.3940
  115EH     H0N 3555   0.688   3.808   3.370 -0.4110 -0.2635 -0.4202
  115EH     C0O 3556   0.594   3.875   2.973 -0.5341  0.4584  0.8944
  115EH     H0P 3557   0.676   3.901   2.906 -2.2871 -0.0903 -1.5770
  115EH     H0Q 3558   0.514   3.831   2.913 -0.0164  0.2331  0.3672
  115EH     C0R 3559   0.541   4.009   3.033  0.2626  0.3222 -1.1583
  115EH     H0S 3560   0.629   4.064   3.066  1.1978 -1.8015 -0.0683
  115EH     H0T 3561   0.482   3.985   3.121  0.5345  0.9498 -0.8015
  115EH     C0U 3562   0.450   4.099   2.944 -0.0107 -0.0805 -0.6741
  115EH     H0V 3563   0.521   4.125   2.865 -0.8181  0.7152 -1.1496
  115EH     H0W 3564   0.368   4.050   2.893 -0.0946  0.4720 -1.0761
  115EH     C0X 3565   0.405   4.228   3.017  0.1484 -0.4341  1.1470
  115EH     H0Y 3566   0.487   4.298   3.036 -0.5643  0.9964 -0.9526
  115EH     H0Z 3567   0.344   4.207   3.105 -0.5325  0.6674  0.9446
  115EH     H10 3568   0.344   4.275   2.941 -2.4684 -1.1731  2.7388
  116EH     H00 3569   1.151   3.739   2.593 -0.1655 -0.0687 -0.0804
  116EH     C01 3570   1.063   3.701   2.541  0.4100 -0.5988 -0.6843
  116EH     H02 3571   1.001   3.790   2.553  0.8042 -0.5249  1.0396
  116EH     H03 3572   1.085   3.686   2.436  2.1671 -0.2132 -0.3831
  116EH     C04 3573   0.985   3.577   2.585  0.1966 -0.2824  0.0603
  116EH     C05 3574   0.851   3.587   2.619 -0.0934 -0.0330  0.5750
  116EH     H06 3575   0.813   3.490   2.646  1.1758 -0.7818 -0.2880
  116EH     H07 3576   0.827   3.678   2.673  0.8575  0.4852  0.1373
  116EH     C08 3577   1.030   3.454   2.524  0.9380  0.1873  0.0268
  116EH     O09 3578   1.148   3.434   2.500 -0.5260 -0.6412 -0.0673
  116EH     O0A 3579   0.939   3.353   2.516 -0.9771 -0.2046 -0.3418
  116EH     C0B 3580   0.984   3.225   2.488  0.2719  0.8030  0.0042
  116EH     H0C 3581   1.030   3.186   2.579 -0.6787 -0.7840 -0.1682
  116EH     H0D 3582   1.074   3.222   2.426  0.7755  0.8876  0.7238
  116EH     C0E 3583   0.871   3.125   2.452 -0.2314  0.3481  0.0044
  116EH     H0F 3584   0.783   3.178   2.416 -2.1994 -1.7398  1.5802
  116EH     C0G 3585   0.930   3.027   2.343 -0.3069  0.2921  0.6342
  116EH     H0H 3586   1.008   2.959   2.377 -0.7322 -0.8589 -0.6469
  116EH     H0I 3587   0.972   3.088   2.263  0.4143  1.5158  1.9197
  116EH     C0J 3588   0.812   2.947   2.276  0.0156 -0.1227 -0.1351
  116EH     H0K 3589   0.835   2.912   2.176  0.1362 -1.9329  0.5096
  116EH     H0M 3590   0.729   3.012   2.249  0.0217 -0.2615 -0.4808
  116EH     H0N 3591   0.778   2.859   2.330  1.0192 -0.2700  0.2807
  116EH     C0O 3592   0.814   3.050   2.574 -0.1162 -0.3816  0.5207
  116EH     H0P 3593   0.734   2.984   2.541  0.6209 -0.0909 -1.9326
  116EH     H0Q 3594   0.892   2.979   2.599  2.1571  1.5637 -0.8656
  116EH     C0R 3595   0.771   3.152   2.686 -0.1579 -0.0694  0.2326
  116EH     H0S 3596   0.736   3.245   2.641  0.8858  0.2202 -0.0135
  116EH     H0T 3597   0.867   3.172   2.733  0.0130 -0.7487  0.1830
  116EH     C0U 3598   0.666   3.087   2.782  0.8642  0.4687 -0.3237
  116EH     H0V 3599   0.579   3.050   2.728  0.1066  0.5301  0.8497
  116EH     H0W 3600   0.693   3.007   2.851  0.1109 -0.2474 -0.8514
  116EH     C0X 3601   0.600   3.189   2.877 -0.1122 -0.5747 -0.7254
  116EH     H0Y 3602   0.579   3.282   2.824 -0.6077 -0.0780  0.3205
  116EH     H0Z 3603   0.669   3.206   2.959  0.3903  2.1539 -1.6561
  116EH     H10 3604   0.511   3.144   2.920 -0.4901  0.4832 -0.3885
  117LA     H00 3605   0.796   3.858   2.590 -1.2631  0.8484  1.8731
  117LA     C01 3606   0.716   3.783   2.584 -0.0512 -0.3599  0.3872
  117LA     H02 3607   0.666   3.791   2.681 -1.5872  2.1019 -0.5769
  117LA     H03 3608   0.657   3.825   2.503  1.1839 -0.9497 -0.8506
  117LA     C04 3609   0.738   3.645   2.518 -0.3468  0.0442  0.3886
  117LA     C05 3610   0.643   3.548   2.532  0.0546  0.0552 -0.5272
  117LA     H06 3611   0.609   3.539   2.634  0.8607  1.3589 -0.1247
  117LA     H07 3612   0.664   3.453   2.486 -0.9679 -0.3566 -0.1621
  117LA     C08 3613   0.803   3.654   2.383  0.1074  0.5336 -0.2671
  117LA     O09 3614   0.854   3.764   2.342  0.1306 -0.0888 -0.0639
  117LA     O0A 3615   0.818   3.544   2.321 -0.8111  0.0959  0.2239
  117LA     C0B 3616   0.875   3.534   2.189  0.1788 -0.2807 -0.7847
  117LA     H0C 3617   0.955   3.606   2.178 -1.2345  1.3729 -0.4256
  117LA     H0D 3618   0.794   3.573   2.128 -1.3657  0.4209  1.6609
  117LA     C0E 3619   0.901   3.395   2.146 -0.0037 -0.0755 -0.7280
  117LA     H0F 3620   0.951   3.342   2.227 -0.2004 -0.8925 -1.1327
  117LA     H0G 3621   0.810   3.334   2.147 -0.0396 -0.0255 -1.0010
  117LA     C0H 3622   0.975   3.372   2.016 -0.3547 -0.3491  0.5065
  117LA     H0I 3623   0.913   3.400   1.931  0.4975 -0.4105 -0.1444
  117LA     H0J 3624   1.058   3.443   2.018  0.1393 -0.9350  1.8779
  117LA     C0K 3625   1.032   3.231   1.991  0.7875 -0.2827 -0.3132
  117LA     H0M 3626   1.081   3.187   2.078  1.4156  1.8359  0.4209
  117LA     H0N 3627   0.939   3.174   1.976 -0.0583  0.4605  1.9863
  117LA     C0O 3628   1.107   3.211   1.860  0.8896  0.2259 -1.1856
  117LA     H0P 3629   1.046   3.253   1.780 -1.5643 -1.0127 -0.0072
  117LA     H0Q 3630   1.199   3.270   1.867  1.4997 -0.9017  0.8768
  117LA     C0R 3631   1.120   3.059   1.825 -0.0999  0.8767  0.5109
  117LA     H0S 3632   1.189   3.006   1.890  0.5482 -3.0384 -3.1496
  117LA     H0T 3633   1.023   3.011   1.828  0.4475 -0.3749 -1.0527
  117LA     C0U 3634   1.167   3.028   1.678 -0.1191  0.0173  0.9412
  117LA     H0V 3635   1.275   3.046   1.670  0.0371 -0.2734  2.3070
  117LA     H0W 3636   1.161   2.921   1.659 -0.9263  0.1563  0.3876
  117LA     C0X 3637   1.090   3.105   1.568  0.0171  0.0433 -0.0171
  117LA     H0Y 3638   0.982   3.100   1.576  0.0041  0.3856  0.0521
  117LA     H0Z 3639   1.116   3.211   1.581  0.6092  0.1055 -1.6556
  117LA     C10 3640   1.123   3.071   1.417 -0.0079 -0.3379  0.3189
  117LA     H11 3641   1.112   2.964   1.399 -0.7745 -0.2327  0.1585
  117LA     H12 3642   1.231   3.080   1.401 -0.1092 -0.9593 -0.6983
  117LA     C13 3643   1.025   3.153   1.325 -0.3207  0.3191 -0.6827
  117LA     H14 3644   1.052   3.258   1.335 -0.0282  0.1046  0.8860
  117LA     H15 3645   0.927   3.139   1.370 -1.1435 -0.2510 -2.5814
  117LA     C16 3646   1.038   3.126   1.175 -0.1210 -0.1989  0.6223
  117LA     H17 3647   1.142   3.124   1.144 -0.4761 -4.0311 -0.5343
  117LA     H18 3648   0.985   3.207   1.124  0.9882  1.7475  2.4670
  117LA     C19 3649   0.979   2.997   1.128  0.4934  0.0536  0.5587
  117LA     H1A 3650   0.871   2.999   1.141  0.2333  0.9839 -1.5673
  117LA     H1B 3651   1.024   2.914   1.182  1.5157 -0.2049 -0.6641
  117LA     H1C 3652   1.001   2.990   1.021 -1.3218  2.5495 -0.0333
  118ST     H00 3653   0.553   3.704   2.331  1.8417 -0.3085 -1.8761
  118ST     C01 3654   0.509   3.604   2.337 -0.6292  0.7669 -1.1370
  118ST     H02 3655   0.419   3.609   2.276  1.1285 -1.5758 -4.0659
  118ST     H03 3656   0.574   3.535   2.283 -0.6949 -1.2578  1.2764
  118ST     C04 3657   0.491   3.560   2.485  0.4844  0.3822 -0.2810
  118ST     C05 3658   0.449   3.424   2.506 -0.2504 -0.3460 -0.2461
  118ST     H06 3659   0.429   3.397   2.608 -1.9971 -2.4009 -1.0816
  118ST     H07 3660   0.512   3.348   2.462 -0.7555 -1.2200  0.5281
  118ST     C08 3661   0.445   3.662   2.575 -0.4865 -0.4123 -0.1152
  118ST     O09 3662   0.416   3.645   2.698 -0.4948  0.7050 -0.3459
  118ST     O0A 3663   0.429   3.783   2.521  0.0985 -0.0761  0.3579
  118ST     C0B 3664   0.378   3.882   2.609  0.4665 -0.0394  0.4192
  118ST     H0C 3665   0.286   3.838   2.646  0.5768 -0.0138  0.7262
  118ST     H0D 3666   0.454   3.896   2.686  0.5726 -0.1523  0.3360
  118ST     C0E 3667   0.339   4.009   2.526 -0.6715  0.0905  0.3370
  118ST     H0F 3668   0.291   3.972   2.436 -0.3427 -1.5721  0.8256
  118ST     H0G 3669   0.428   4.055   2.484 -1.3868  0.3364 -0.9370
  118ST     C0H 3670   0.253   4.109   2.605 -1.2086  0.4174 -0.0684
  118ST     H0I 3671   0.230   4.183   2.528  1.3965 -1.0482 -2.3339
  118ST     H0J 3672   0.318   4.167   2.670  0.5086 -0.8738 -0.6114
  118ST     C0K 3673   0.123   4.058   2.674 -0.1690 -0.5278  0.2015
  118ST     H0M 3674   0.066   3.998   2.603 -0.0024 -0.8249  0.3191
  118ST     H0N 3675   0.150   3.978   2.743  1.4483 -0.1583  0.0129
  118ST     C0O 3676   0.030   4.167   2.730 -0.3498  0.2378  0.4298
  118ST     H0P 3677   0.007   4.224   2.639  1.6397 -1.1324 -0.9866
  118ST     H0Q 3678   0.078   4.233   2.801 -1.6012 -0.0683  1.5746
  118ST     C0R 3679  -0.098   4.113   2.789  0.4076  0.2356  0.1448
  118ST     H0S 3680  -0.095   4.044   2.873 -3.3766  0.5784  0.6692
  118ST     H0T 3681  -0.140   4.052   2.708  0.2006 -0.7161  0.9627
  118ST     C0U 3682  -0.212   4.215   2.817 -0.2870 -0.5424  0.4546
  118ST     H0V 3683  -0.171   4.296   2.876  0.0064 -0.6626  0.4182
  118ST     H0W 3684  -0.299   4.177   2.870 -1.7578 -0.4595 -1.8578
  118ST     C0X 3685  -0.268   4.279   2.691 -0.9054  0.1224  0.1751
  118ST     H0Y 3686  -0.189   4.319   2.627  0.0541  0.1734  1.3786
  118ST     H0Z 3687  -0.317   4.204   2.629  0.8755 -0.4555 -0.5803
  118ST     C10 3688  -0.367   4.394   2.734 -0.1661  0.5032 -0.2576
  118ST     H11 3689  -0.442   4.338   2.790  0.9339 -2.1092 -1.3085
  118ST     H12 3690  -0.329   4.474   2.798 -0.0548 -1.2596  1.9592
  118ST     C13 3691  -0.440   4.451   2.619  0.1675  0.7419  0.4554
  118ST     H14 3692  -0.447   4.382   2.536  0.3222  0.6986  0.4786
  118ST     H15 3693  -0.538   4.487   2.649  0.7925  0.9038  2.4028
  118ST     C16 3694  -0.380   4.578   2.564  0.1460 -0.6446 -0.7155
  118ST     H17 3695  -0.273   4.561   2.557 -0.1370 -2.2813 -1.1773
  118ST     H18 3696  -0.411   4.584   2.460 -3.5555  2.3844  0.4323
  118ST     C19 3697  -0.421   4.710   2.639  0.0025  0.0811  0.0959
  118ST     H1A 3698  -0.530   4.714   2.638  0.0398  1.1168 -0.6346
  118ST     H1B 3699  -0.388   4.703   2.742  1.9435  0.1163 -0.5078
  118ST     C1C 3700  -0.377   4.837   2.563 -0.0917  0.6163  0.3519
  118ST     H1D 3701  -0.268   4.845   2.557 -0.1859  1.4799 -0.3265
  118ST     H1E 3702  -0.390   4.834   2.455  0.2232 -0.0091  0.3245
  118ST     C1F 3703  -0.422   4.969   2.623  0.2936 -0.1169 -0.0349
  118ST     H1G 3704  -0.526   4.988   2.599  0.4685  0.7609 -0.1424
  118ST     H1H 3705  -0.414   4.983   2.731  0.1088  2.8463 -0.3425
  118ST     C1I 3706  -0.345   5.096   2.582  0.0639 -0.4052  0.1313
  118ST     H1J 3707  -0.247   5.098   2.630  0.2847 -1.5289 -0.2763
  118ST     H1K 3708  -0.416   5.165   2.629  1.5114  0.1167  1.5982
  118ST     C1M 3709  -0.328   5.127   2.426  0.1101  0.2392  0.6026
  118ST     H1N 3710  -0.427   5.116   2.382  1.0175 -0.2206 -1.3964
  118ST     H1O 3711  -0.254   5.061   2.379  0.8373  0.2377  1.7236
  118ST     C1P 3712  -0.284   5.272   2.404 -0.3578 -0.4777  0.5293
  118ST     H1Q 3713  -0.333   5.342   2.471 -0.7250 -0.2329  0.0036
  118ST     H1R 3714  -0.181   5.266   2.437 -0.5045 -2.4922  0.7190
  118ST     C1S 3715  -0.287   5.332   2.264  0.6777  0.9166  0.4179
  118ST     H1T 3716  -0.390   5.347   2.231  1.2287  1.8186 -0.9591
  118ST     H1U 3717  -0.246   5.258   2.196 -0.2740 -0.0424  0.8798
  118ST     H1V 3718  -0.236   5.428   2.255 -0.4516  1.6038  1.2019
  119EH     H00 3719   0.407   3.245   2.306  0.0465 -0.3413 -1.3815
  119EH     C01 3720   0.345   3.335   2.302  0.4534 -0.0087 -0.4724
  119EH     H02 3721   0.405   3.402   2.240 -1.6237  1.6508 -0.7387
  119EH     H03 3722   0.259   3.295   2.248 -0.4489  0.0606  0.8887
  119EH     C04 3723   0.309   3.380   2.447  0.4113 -0.2016  0.5582
  119EH     C05 3724   0.224   3.487   2.469  0.2540 -0.2918  0.0977
  119EH     H06 3725   0.220   3.484   2.577 -2.8043 -2.0328  0.0038
  119EH     H07 3726   0.243   3.572   2.405 -1.9057  1.1507  1.3209
  119EH     C08 3727   0.300   3.257   2.532  0.0333 -0.3965  1.0882
  119EH     O09 3728   0.355   3.148   2.509 -0.2543 -0.5002  0.4118
  119EH     O0A 3729   0.221   3.273   2.637  0.6727  0.0041 -0.4490
  119EH     C0B 3730   0.195   3.165   2.733  0.3782  0.1865 -0.2080
  119EH     H0C 3731   0.286   3.116   2.767  0.7020  2.4825  2.4091
  119EH     H0D 3732   0.152   3.094   2.663 -0.3984 -0.2492  0.7164
  119EH     C0E 3733   0.101   3.207   2.843  0.0248 -0.0282 -0.0348
  119EH     H0F 3734   0.022   3.261   2.790  0.4979  0.9549  0.2547
  119EH     C0G 3735   0.025   3.087   2.905  0.1472  0.2008 -0.1433
  119EH     H0H 3736  -0.040   3.132   2.979  0.9700 -0.5241  1.0325
  119EH     H0I 3737   0.084   3.009   2.953 -0.4019  1.9572  3.5393
  119EH     C0J 3738  -0.080   3.027   2.811  0.3751  0.1816  0.0533
  119EH     H0K 3739  -0.132   3.107   2.758 -0.0829  0.7691  1.3906
  119EH     H0M 3740  -0.154   2.970   2.867  0.4549 -0.9940 -1.0220
  119EH     H0N 3741  -0.021   2.958   2.751  3.5449  0.2161  3.0381
  119EH     C0O 3742   0.182   3.290   2.951  0.0834 -0.2587 -0.3287
  119EH     H0P 3743   0.111   3.318   3.029  1.8427 -1.1434  1.6779
  119EH     H0Q 3744   0.260   3.235   3.004  0.4114  0.7110  0.2168
  119EH     C0R 3745   0.226   3.428   2.906 -0.3201  0.2444  0.3455
  119EH     H0S 3746   0.156   3.477   2.839 -1.3083 -2.4020 -0.5937
  119EH     H0T 3747   0.323   3.420   2.856  1.5372 -0.1318  3.8176
  119EH     C0U 3748   0.255   3.534   3.011 -0.2279  0.4327  0.0923
  119EH     H0V 3749   0.328   3.489   3.078  0.6894 -0.4120 -1.4310
  119EH     H0W 3750   0.315   3.614   2.967 -0.5300  0.8375  0.4146
  119EH     C0X 3751   0.140   3.603   3.091  0.6317 -0.0670  0.4043
  119EH     H0Y 3752   0.092   3.530   3.156  0.7402  1.4477  2.2433
  119EH     H0Z 3753   0.057   3.641   3.031 -1.3424 -1.0930  2.4408
  119EH     H10 3754   0.178   3.689   3.147  2.1215 -0.1348 -0.4566
  120EH     H00 3755  -0.074   3.604   2.528 -0.0792  0.7708  1.9731
  120EH     C01 3756   0.027   3.568   2.549  0.2476  0.5991  0.1644
  120EH     H02 3757   0.085   3.654   2.581  0.7547  0.3359 -0.0456
  120EH     H03 3758   0.017   3.512   2.642  0.4636  2.1191  1.1106
  120EH     C04 3759   0.072   3.488   2.422 -0.3323 -0.2896  0.5850
  120EH     C05 3760   0.040   3.359   2.407  0.0488  0.7522 -0.1462
  120EH     H06 3761   0.074   3.315   2.314  0.1232 -0.1744  0.3084
  120EH     H07 3762   0.030   3.299   2.497 -0.3889 -0.7606 -1.1851
  120EH     C08 3763   0.085   3.575   2.303 -0.3673 -0.4097  0.6054
  120EH     O09 3764   0.057   3.692   2.308  0.3515  0.1291 -0.1624
  120EH     O0A 3765   0.135   3.523   2.195 -0.4462  0.2440  0.2060
  120EH     C0B 3766   0.169   3.598   2.079 -0.1424  0.2591  1.1600
  120EH     H0C 3767   0.228   3.685   2.105  0.0817  0.9719 -1.5947
  120EH     H0D 3768   0.083   3.648   2.034  0.9368  1.7858  0.7929
  120EH     C0E 3769   0.260   3.518   1.973  0.2225 -0.0038  0.1033
  120EH     H0F 3770   0.355   3.496   2.021 -0.8102 -1.5970  1.4717
  120EH     C0G 3771   0.195   3.383   1.942  0.2864 -0.0274  0.5149
  120EH     H0H 3772   0.094   3.388   1.901  0.8876  1.3214 -0.8271
  120EH     H0I 3773   0.184   3.334   2.039 -1.5256  0.2201  0.4499
  120EH     C0J 3774   0.282   3.275   1.860 -0.3763 -0.8392  0.0570
  120EH     H0K 3775   0.272   3.302   1.755 -1.0133 -0.7733  0.1338
  120EH     H0M 3776   0.228   3.180   1.867  0.5664 -1.3986 -0.2360
  120EH     H0N 3777   0.384   3.259   1.894  0.6781  1.2438 -2.0295
  120EH     C0O 3778   0.289   3.606   1.845 -0.1594 -0.1331  1.2596
  120EH     H0P 3779   0.358   3.548   1.784 -0.2507  1.2035 -0.1585
  120EH     H0Q 3780   0.198   3.620   1.787  0.8206  0.3375 -0.1937
  120EH     C0R 3781   0.355   3.748   1.861 -0.4141 -0.1123  0.0216
  120EH     H0S 3782   0.286   3.821   1.904 -1.9964 -0.8673 -1.2020
  120EH     H0T 3783   0.375   3.776   1.757 -0.2972 -1.0753 -0.2213
  120EH     C0U 3784   0.484   3.742   1.954  0.3237  0.3553  0.0846
  120EH     H0V 3785   0.457   3.732   2.060  0.9308  0.4544  0.2523
  120EH     H0W 3786   0.551   3.660   1.929  1.7448  0.9427  1.7801
  120EH     C0X 3787   0.572   3.867   1.951 -0.3446 -0.1926 -0.0866
  120EH     H0Y 3788   0.583   3.912   1.853  0.0654 -1.1533 -0.4967
  120EH     H0Z 3789   0.669   3.847   1.998 -0.6687 -4.5459 -1.0430
  120EH     H10 3790   0.526   3.948   2.007 -0.2046  1.0634 -1.7748
  121LA     H00 3791   0.015   3.128   2.368  1.5961  1.8866  2.3083
  121LA     C01 3792  -0.086   3.161   2.393  0.6339  0.3552  0.6005
  121LA     H02 3793  -0.145   3.100   2.324  0.9665  1.9607 -1.1225
  121LA     H03 3794  -0.110   3.131   2.495 -1.1727  2.9174  0.9775
  121LA     C04 3795  -0.108   3.312   2.368  0.0152  0.1056 -0.4207
  121LA     C05 3796  -0.185   3.385   2.453 -0.1664 -0.2525 -0.5458
  121LA     H06 3797  -0.178   3.362   2.559 -1.7875  1.5927  0.0053
  121LA     H07 3798  -0.187   3.487   2.418  1.6526 -0.1341 -0.3872
  121LA     C08 3799  -0.110   3.342   2.226  0.2908 -0.4271 -1.4233
  121LA     O09 3800  -0.077   3.263   2.136  0.1775  0.3689  0.3273
  121LA     O0A 3801  -0.158   3.459   2.197 -0.4697 -0.3217 -0.8122
  121LA     C0B 3802  -0.199   3.486   2.062  1.0041 -0.0484 -0.3612
  121LA     H0C 3803  -0.288   3.427   2.042  0.1800  1.5441 -1.4615
  121LA     H0D 3804  -0.122   3.458   1.990  1.7922  0.7492  0.1597
  121LA     C0E 3805  -0.233   3.640   2.047 -0.1638 -0.7713  0.1857
  121LA     H0F 3806  -0.320   3.679   2.100 -0.6784 -1.5827 -0.0523
  121LA     H0G 3807  -0.143   3.690   2.082  0.1165 -1.0362 -0.1572
  121LA     C0H 3808  -0.236   3.684   1.896 -0.2521 -0.1319  0.4857
  121LA     H0I 3809  -0.166   3.628   1.834  0.0316  1.8223 -1.0082
  121LA     H0J 3810  -0.336   3.656   1.863  0.0220  0.5507 -0.9812
  121LA     C0K 3811  -0.216   3.842   1.881 -0.3981  0.2670  0.1672
  121LA     H0M 3812  -0.291   3.892   1.941 -1.2597 -0.4504 -0.2846
  121LA     H0N 3813  -0.117   3.867   1.918 -1.0738  3.2886  0.0480
  121LA     C0O 3814  -0.218   3.902   1.740  0.0969 -0.2272 -0.3126
  121LA     H0P 3815  -0.207   4.011   1.744  0.2374 -0.3169  2.7131
  121LA     H0Q 3816  -0.130   3.885   1.679 -0.9802 -0.1784 -1.9278
  121LA     C0R 3817  -0.349   3.866   1.660  0.2660 -0.3076 -0.5764
  121LA     H0S 3818  -0.370   3.760   1.651  0.1530 -0.4599  1.3143
  121LA     H0T 3819  -0.432   3.912   1.714 -0.9314 -1.1679 -1.6576
  121LA     C0U 3820  -0.342   3.920   1.518 -0.2816  0.4358 -0.4671
  121LA     H0V 3821  -0.362   4.027   1.515 -2.7082 -0.0054 -1.4237
  121LA     H0W 3822  -0.243   3.905   1.476 -0.4980 -0.9462 -0.5171
  121LA     C0X 3823  -0.447   3.852   1.427 -0.4269 -1.1502 -0.6868
  121LA     H0Y 3824  -0.550   3.859   1.463 -1.2051 -2.0339 -2.6593
  121LA     H0Z 3825  -0.445   3.905   1.332  0.9677  0.0061 -0.0291
  121LA     C10 3826  -0.429   3.695   1.410  0.3551  0.2447  0.0460
  121LA     H11 3827  -0.512   3.664   1.346  0.5664  1.0927 -0.6503
  121LA     H12 3828  -0.441   3.634   1.500  2.2957  1.3538  1.1009
  121LA     C13 3829  -0.299   3.654   1.331  0.6483  0.3736  1.0165
  121LA     H14 3830  -0.207   3.689   1.378  1.0211  1.0670 -0.2202
  121LA     H15 3831  -0.285   3.694   1.231  1.9381  1.2662  1.5432
  121LA     C16 3832  -0.281   3.507   1.330  0.1486 -0.3174  0.0260
  121LA     H17 3833  -0.329   3.463   1.417 -2.5077 -0.7085 -1.5860
  121LA     H18 3834  -0.180   3.469   1.348  0.1820  0.2118  1.0225
  121LA     C19 3835  -0.353   3.427   1.213 -0.2991  0.7206 -0.7996
  121LA     H1A 3836  -0.330   3.475   1.118  0.0203  0.8035 -0.6804
  121LA     H1B 3837  -0.461   3.418   1.227  0.1743 -0.9633  2.0438
  121LA     H1C 3838  -0.316   3.325   1.199  0.0007  0.8442 -0.9067
  122EH     H00 3839  -0.462   3.189   2.524 -1.1115  2.6937  0.9077
  122EH     C01 3840  -0.361   3.216   2.493 -0.7990  0.8693  0.2737
  122EH     H02 3841  -0.291   3.173   2.564  0.7437  0.1606 -1.6142
  122EH     H03 3842  -0.353   3.157   2.401 -0.0400 -0.0401  0.9145
  122EH     C04 3843  -0.341   3.365   2.470 -0.3785 -0.1363 -0.3130
  122EH     C05 3844  -0.403   3.418   2.359 -0.1617 -0.1551 -0.5882
  122EH     H06 3845  -0.393   3.526   2.362  0.2167 -0.1862 -0.7377
  122EH     H07 3846  -0.381   3.353   2.276  0.7026 -1.3723  0.5762
  122EH     C08 3847  -0.349   3.444   2.602  0.1417 -0.2199  0.9700
  122EH     O09 3848  -0.348   3.392   2.719  0.0754 -0.7630 -0.5477
  122EH     O0A 3849  -0.330   3.569   2.582  0.0114 -0.1900  0.1920
  122EH     C0B 3850  -0.366   3.662   2.674 -0.4246 -0.8124  0.0620
  122EH     H0C 3851  -0.272   3.689   2.721  0.3208 -1.0764 -1.2468
  122EH     H0D 3852  -0.439   3.616   2.740  0.6227 -0.2543  1.6261
  122EH     C0E 3853  -0.422   3.785   2.589  0.2397 -0.8984 -0.1707
  122EH     H0F 3854  -0.500   3.744   2.525 -1.1445  1.7004 -0.2151
  122EH     C0G 3855  -0.507   3.890   2.668 -0.1333 -0.1206 -0.2976
  122EH     H0H 3856  -0.506   3.975   2.601 -0.4107 -0.7707 -1.1355
  122EH     H0I 3857  -0.451   3.922   2.756 -1.4592 -0.5560  0.7357
  122EH     C0J 3858  -0.648   3.832   2.703  0.9772 -0.4588 -0.4652
  122EH     H0K 3859  -0.645   3.761   2.786 -1.1059 -0.1318 -0.0828
  122EH     H0M 3860  -0.688   3.787   2.613  1.6159  0.6754 -1.3330
  122EH     H0N 3861  -0.712   3.914   2.734  1.7398  0.5029 -1.3869
  122EH     C0O 3862  -0.301   3.841   2.516 -0.5033  0.2576 -0.0601
  122EH     H0P 3863  -0.255   3.918   2.579  0.9628 -1.5055  1.0875
  122EH     H0Q 3864  -0.218   3.773   2.496 -1.0536 -0.4385  0.0151
  122EH     C0R 3865  -0.339   3.896   2.386 -0.7596  0.2517 -0.2263
  122EH     H0S 3866  -0.424   3.963   2.387 -1.1693 -0.2347  3.5732
  122EH     H0T 3867  -0.387   3.816   2.331 -0.6932  0.0947 -0.0555
  122EH     C0U 3868  -0.226   3.964   2.305  0.7211 -0.6077 -0.0707
  122EH     H0V 3869  -0.149   3.888   2.290  0.4626 -0.8201 -0.3452
  122EH     H0W 3870  -0.268   3.996   2.209 -1.9247 -1.1032  0.8893
  122EH     C0X 3871  -0.172   4.100   2.354 -0.3201  0.5108  0.4366
  122EH     H0Y 3872  -0.105   4.147   2.283 -0.1352 -0.4756 -0.0451
  122EH     H0Z 3873  -0.110   4.083   2.442 -1.3651 -2.0303  0.7325
  122EH     H10 3874  -0.253   4.168   2.384  1.1734  1.8886  1.4292
  123LA     H00 3875  -0.548   3.275   2.162 -0.6252 -1.2092 -0.1139
  123LA     C01 3876  -0.590   3.289   2.261 -0.4107  0.0841 -0.1921
  123LA     H02 3877  -0.692   3.257   2.242 -0.4390  1.0939 -1.8242
  123LA     H03 3878  -0.567   3.203   2.324 -2.0276 -0.4052 -0.2434
  123LA     C04 3879  -0.563   3.419   2.335  0.2034 -0.7214  0.1064
  123LA     C05 3880  -0.568   3.536   2.256 -0.2452  0.1270  0.2977
  123LA     H06 3881  -0.501   3.537   2.171  1.1843 -1.2515  1.3775
  123LA     H07 3882  -0.566   3.625   2.316  1.1099 -0.2608  0.8579
  123LA     C08 3883  -0.618   3.433   2.472 -0.0236 -0.0019 -0.0499
  123LA     O09 3884  -0.636   3.537   2.536 -0.3029  0.7166 -0.4579
  123LA     O0A 3885  -0.662   3.309   2.520 -0.4405  0.5401 -0.0346
  123LA     C0B 3886  -0.739   3.303   2.634 -0.3030  0.6487  0.9321
  123LA     H0C 3887  -0.677   3.280   2.721 -1.7374  0.3802  1.8984
  123LA     H0D 3888  -0.797   3.394   2.647 -0.6277  0.7137 -0.7617
  123LA     C0E 3889  -0.835   3.182   2.616 -0.5462 -0.5482 -0.2864
  123LA     H0F 3890  -0.767   3.100   2.596  0.8688  0.3456  0.7470
  123LA     H0G 3891  -0.883   3.153   2.709  0.4621  0.9933  0.7459
  123LA     C0H 3892  -0.935   3.207   2.504  0.0342  0.3510  0.0007
  123LA     H0I 3893  -0.997   3.288   2.542 -1.6093  0.4298 -2.7004
  123LA     H0J 3894  -0.890   3.245   2.413  0.0736  2.3589  0.8498
  123LA     C0K 3895  -1.022   3.080   2.475 -0.3316 -0.2113  0.1906
  123LA     H0M 3896  -0.958   3.010   2.421 -0.3505  1.2159 -1.7281
  123LA     H0N 3897  -1.051   3.039   2.571  0.0368  0.1658  0.4670
  123LA     C0O 3898  -1.155   3.110   2.403 -0.1576  0.1811  0.2317
  123LA     H0P 3899  -1.212   3.018   2.397 -0.5561  0.5501 -2.4502
  123LA     H0Q 3900  -1.209   3.182   2.465 -0.3099  1.0752 -0.9156
  123LA     C0R 3901  -1.144   3.154   2.258 -0.0972  0.3226  0.0936
  123LA     H0S 3902  -1.079   3.240   2.240  0.7402 -0.7614 -2.2822
  123LA     H0T 3903  -1.097   3.068   2.212 -0.3495  0.2274  0.0179
  123LA     C0U 3904  -1.282   3.173   2.201 -0.0979  0.5298  0.4259
  123LA     H0V 3905  -1.343   3.083   2.197 -0.7304  0.7287  4.1375
  123LA     H0W 3906  -1.346   3.240   2.259 -0.4924 -0.1532  0.7846
  123LA     C0X 3907  -1.271   3.230   2.056  0.0916  1.0636  0.8978
  123LA     H0Y 3908  -1.206   3.316   2.044 -2.9921  3.2969 -0.6062
  123LA     H0Z 3909  -1.234   3.146   1.997 -1.7793 -0.4119  1.7510
  123LA     C10 3910  -1.403   3.265   1.978 -0.4422 -0.5771 -0.1123
  123LA     H11 3911  -1.468   3.338   2.026  0.3586 -0.1690  0.3482
  123LA     H12 3912  -1.472   3.181   1.983 -0.3118 -0.6921 -0.2181
  123LA     C13 3913  -1.378   3.294   1.828  0.3954  0.6818 -0.3411
  123LA     H14 3914  -1.334   3.209   1.777  0.3062  1.3025 -1.4617
  123LA     H15 3915  -1.300   3.370   1.826  2.1194 -1.0549  0.2697
  123LA     C16 3916  -1.493   3.359   1.751 -0.2117  0.8187 -0.1857
  123LA     H17 3917  -1.590   3.313   1.769  0.6124 -1.6575 -1.9209
  123LA     H18 3918  -1.471   3.356   1.645  0.7283  0.9099  0.0005
  123LA     C19 3919  -1.504   3.508   1.792 -0.1463  0.2693 -0.3892
  123LA     H1A 3920  -1.587   3.560   1.744  0.6922 -0.0293 -2.1847
  123LA     H1B 3921  -1.415   3.566   1.768  0.1829 -0.3877 -0.7735
  123LA     H1C 3922  -1.533   3.531   1.895 -0.9859 -1.5610 -0.1911
  124LA     H00 3923  -0.844   3.447   2.289  2.2715 -0.5769  0.7795
  124LA     C01 3924  -0.810   3.550   2.276  0.5847 -0.0981  0.1157
  124LA     H02 3925  -0.900   3.610   2.260 -0.1646 -1.1467  0.3571
  124LA     H03 3926  -0.796   3.587   2.378  0.9335  0.4205 -0.1186
  124LA     C04 3927  -0.699   3.573   2.174 -0.4617  0.2253  0.7387
  124LA     C05 3928  -0.694   3.502   2.053  0.0995 -0.0858  0.2710
  124LA     H06 3929  -0.614   3.529   1.986 -0.0133 -1.8609 -0.6132
  124LA     H07 3930  -0.717   3.398   2.071  0.0964 -0.1731 -0.2281
  124LA     C08 3931  -0.659   3.712   2.152  0.7448  1.1131 -0.0939
  124LA     O09 3932  -0.580   3.751   2.067 -0.3705  0.3044  0.8802
  124LA     O0A 3933  -0.730   3.797   2.230 -0.4978 -0.5996 -0.0146
  124LA     C0B 3934  -0.701   3.934   2.231  1.0060 -0.3326 -0.9981
  124LA     H0C 3935  -0.730   3.975   2.135 -0.5567  1.7904  0.3286
  124LA     H0D 3936  -0.595   3.955   2.247  1.1450 -0.4048 -1.8134
  124LA     C0E 3937  -0.784   3.997   2.350 -0.3507  0.7031  0.5926
  124LA     H0F 3938  -0.784   3.920   2.427  0.1114 -0.7301 -0.8078
  124LA     H0G 3939  -0.746   4.094   2.380 -2.0523  1.0115  1.7508
  124LA     C0H 3940  -0.928   4.013   2.302  0.8679  0.4550 -0.4058
  124LA     H0I 3941  -0.941   4.103   2.241  0.7178  1.8678  1.6692
  124LA     H0J 3942  -0.949   3.929   2.236 -1.6233  0.6199  0.1340
  124LA     C0K 3943  -1.029   4.005   2.419 -0.3242 -0.6510  0.2032
  124LA     H0M 3944  -1.041   3.902   2.454  1.1471 -0.7760  0.3865
  124LA     H0N 3945  -0.986   4.063   2.501 -1.5359  0.3603  0.1281
  124LA     C0O 3946  -1.172   4.053   2.367 -0.1352 -0.4216 -0.1845
  124LA     H0P 3947  -1.164   4.159   2.341  2.0156 -1.2201 -3.0759
  124LA     H0Q 3948  -1.195   3.997   2.276 -0.6656 -2.3572  1.1099
  124LA     C0R 3949  -1.287   4.033   2.474  0.6491  0.1796  0.4638
  124LA     H0S 3950  -1.305   3.927   2.489 -1.1076  0.3823 -0.0857
  124LA     H0T 3951  -1.256   4.074   2.570  1.7154  1.1084 -0.2531
  124LA     C0U 3952  -1.419   4.105   2.434  0.2558 -0.8042 -0.6833
  124LA     H0V 3953  -1.396   4.211   2.423 -0.2105 -0.6399 -0.0740
  124LA     H0W 3954  -1.436   4.077   2.330 -2.2530  3.0839 -1.4306
  124LA     C0X 3955  -1.534   4.079   2.531  0.5773  0.5734  0.5409
  124LA     H0Y 3956  -1.545   3.973   2.555  0.1474  0.5810  0.3931
  124LA     H0Z 3957  -1.530   4.133   2.625  0.5694 -0.0686  0.9107
  124LA     C10 3958  -1.670   4.117   2.468  0.1656  0.0059  0.0865
  124LA     H11 3959  -1.753   4.088   2.532 -0.6563 -0.3965 -1.1616
  124LA     H12 3960  -1.668   4.057   2.378 -0.5051  2.1267 -1.3801
  124LA     C13 3961  -1.690   4.266   2.432 -0.0092 -0.2137  0.0870
  124LA     H14 3962  -1.602   4.316   2.392 -1.4451  0.5834 -2.1804
  124LA     H15 3963  -1.721   4.316   2.524 -0.1056 -0.2060  0.0506
  124LA     C16 3964  -1.785   4.292   2.313  0.2243  0.4580  0.5711
  124LA     H17 3965  -1.877   4.240   2.339  0.6588  0.0293  1.2829
  124LA     H18 3966  -1.741   4.233   2.232 -2.5314 -0.4949 -0.2912
  124LA     C19 3967  -1.804   4.441   2.283 -0.6664  0.2142 -0.2858
  124LA     H1A 3968  -1.717   4.498   2.316  0.1333 -1.1531 -0.0168
  124LA     H1B 3969  -1.886   4.484   2.341 -0.4574  1.9483 -1.2292
  124LA     H1C 3970  -1.813   4.472   2.179 -2.1373 -0.2034 -0.2960
  125EH     H00 3971  -0.948   3.377   2.045 -5.2170  0.6195 -1.8836
  125EH     C01 3972  -0.934   3.475   1.999 -0.0110  0.6844 -0.4316
  125EH     H02 3973  -0.963   3.555   2.067 -1.2015  0.9202 -1.1993
  125EH     H03 3974  -1.017   3.476   1.929 -0.2306 -1.5120 -0.2584
  125EH     C04 3975  -0.803   3.522   1.933 -0.3592 -0.2862  0.5154
  125EH     C05 3976  -0.795   3.655   1.892  0.1177 -0.0240 -0.0314
  125EH     H06 3977  -0.828   3.730   1.962 -0.8526  1.4977 -2.0759
  125EH     H07 3978  -0.702   3.675   1.840 -1.6050  0.4768 -3.0321
  125EH     C08 3979  -0.742   3.414   1.851  0.1005  0.0450 -0.1074
  125EH     O09 3980  -0.639   3.435   1.782  0.5121 -0.5188  0.0608
  125EH     O0A 3981  -0.808   3.293   1.868 -0.2147  0.2395 -0.6121
  125EH     C0B 3982  -0.734   3.173   1.846  0.5308  0.2714  0.5108
  125EH     H0C 3983  -0.631   3.184   1.878  0.3717  0.5687  0.9162
  125EH     H0D 3984  -0.725   3.157   1.738 -1.1453 -0.7871  0.5074
  125EH     C0E 3985  -0.801   3.057   1.918 -0.1148 -0.5295 -0.7329
  125EH     H0F 3986  -0.820   3.086   2.021  1.3184  1.4783 -0.9971
  125EH     C0G 3987  -0.932   3.024   1.855 -0.8022  0.2762 -0.3251
  125EH     H0H 3988  -0.912   3.000   1.751 -2.8239 -1.9612 -0.2325
  125EH     H0I 3989  -0.988   3.118   1.862 -1.3106 -0.0682  0.3266
  125EH     C0J 3990  -1.018   2.907   1.911  0.2889 -0.2760 -0.4926
  125EH     H0K 3991  -0.969   2.812   1.889  1.6279  0.7918 -2.2707
  125EH     H0M 3992  -1.115   2.886   1.866  0.9528 -2.8716 -0.8186
  125EH     H0N 3993  -1.036   2.923   2.018 -1.5599 -2.6716 -0.4108
  125EH     C0O 3994  -0.714   2.929   1.923 -0.1465  0.3480  0.4290
  125EH     H0P 3995  -0.739   2.870   1.835 -0.0044  1.2965 -0.2565
  125EH     H0Q 3996  -0.613   2.954   1.890 -0.1368  0.5416  0.6065
  125EH     C0R 3997  -0.701   2.858   2.058 -0.1926  0.3817 -0.5058
  125EH     H0S 3998  -0.640   2.770   2.038  0.9022  0.8277  0.8429
  125EH     H0T 3999  -0.794   2.817   2.097 -1.4535  1.9931 -1.7277
  125EH     C0U 4000  -0.637   2.941   2.174 -0.1852 -0.1889 -0.3251
  125EH     H0V 4001  -0.598   3.029   2.124 -1.2359  1.4777  1.7033
  125EH     H0W 4002  -0.712   2.974   2.247  1.6877 -0.6543  1.8562
  125EH     C0X 4003  -0.523   2.862   2.245 -0.2043  0.6160  0.2220
  125EH     H0Y 4004  -0.443   2.832   2.176 -0.7995  1.2077 -0.7451
  125EH     H0Z 4005  -0.565   2.774   2.293  3.5127 -1.5350 -0.2755
  125EH     H10 4006  -0.487   2.924   2.326 -1.7836 -0.1928  1.5685
  126ST     H00 4007  -1.021   3.733   1.973  0.2072  0.4615 -0.0053
  126ST     C01 4008  -1.024   3.737   1.864 -0.8925 -0.3728 -0.0182
  126ST     H02 4009  -1.105   3.670   1.835  0.7636 -1.9354 -1.1365
  126ST     H03 4010  -1.063   3.835   1.836 -0.7914 -0.7355 -1.4425
  126ST     C04 4011  -0.899   3.705   1.774  0.4116  0.0152  0.2729
  126ST     C05 4012  -0.904   3.600   1.695  0.1470  0.0369 -0.2646
  126ST     H06 4013  -0.958   3.517   1.738 -0.9159 -0.0895 -1.7755
  126ST     H07 4014  -0.807   3.578   1.653  0.2032 -1.3530  0.5614
  126ST     C08 4015  -0.806   3.817   1.742 -0.0086  0.9035  0.0876
  126ST     O09 4016  -0.724   3.823   1.651  0.4521  0.1281  0.1143
  126ST     O0A 4017  -0.823   3.919   1.829  0.6296  0.7762 -0.2283
  126ST     C0B 4018  -0.706   3.996   1.849  0.2078 -0.0097 -0.3271
  126ST     H0C 4019  -0.725   4.054   1.939 -0.5735 -1.1048  0.2207
  126ST     H0D 4020  -0.624   3.927   1.870 -1.5244 -1.1488  3.1588
  126ST     C0E 4021  -0.682   4.111   1.746 -0.0265 -0.1860 -0.0977
  126ST     H0F 4022  -0.768   4.177   1.739 -0.9336 -1.3982 -0.7631
  126ST     H0G 4023  -0.661   4.075   1.645 -0.0808  0.2649 -0.2689
  126ST     C0H 4024  -0.562   4.197   1.801 -0.4539  0.0240 -0.2057
  126ST     H0I 4025  -0.474   4.137   1.828 -1.4993 -1.2292  0.4714
  126ST     H0J 4026  -0.590   4.244   1.895  0.5748  0.1649  0.0442
  126ST     C0K 4027  -0.516   4.304   1.694 -0.1686  0.5682 -0.2841
  126ST     H0M 4028  -0.548   4.264   1.598  0.5725 -0.9435  0.0875
  126ST     H0N 4029  -0.570   4.398   1.707 -1.9786 -0.6892  1.6802
  126ST     C0O 4030  -0.367   4.337   1.689  0.1320 -0.3147  0.2355
  126ST     H0P 4031  -0.303   4.248   1.691 -1.6757 -1.6476 -0.2625
  126ST     H0Q 4032  -0.326   4.392   1.773 -0.8727 -0.2528  0.6912
  126ST     C0R 4033  -0.324   4.418   1.564  0.1993 -0.8815  0.1200
  126ST     H0S 4034  -0.380   4.511   1.574 -1.9361 -2.2666  1.5625
  126ST     H0T 4035  -0.363   4.372   1.473  2.3032 -2.5112  0.0065
  126ST     C0U 4036  -0.175   4.458   1.553  0.3564 -0.5733 -0.4105
  126ST     H0V 4037  -0.121   4.365   1.537  1.2084 -0.1107 -0.2534
  126ST     H0W 4038  -0.138   4.506   1.643  0.0198 -2.6189  0.8558
  126ST     C0X 4039  -0.147   4.525   1.424  0.3283  0.2257 -0.2271
  126ST     H0Y 4040  -0.160   4.459   1.338 -0.4623 -1.5314  1.2088
  126ST     H0Z 4041  -0.211   4.611   1.408  0.6059  0.3990 -0.4174
  126ST     C10 4042  -0.003   4.580   1.419  0.0251 -0.0140  0.3875
  126ST     H11 4043   0.069   4.502   1.444 -0.3196 -0.6112 -0.4535
  126ST     H12 4044   0.009   4.605   1.313 -2.1937 -1.2826 -0.1913
  126ST     C13 4045   0.017   4.701   1.507 -0.0837 -0.0142 -0.4272
  126ST     H14 4046  -0.057   4.778   1.483 -0.2634 -0.0942 -0.1250
  126ST     H15 4047   0.006   4.672   1.611 -1.4528  0.6681 -0.3593
  126ST     C16 4048   0.154   4.758   1.493  0.3053 -0.1767 -0.9320
  126ST     H17 4049   0.239   4.691   1.491  1.9144  1.8058 -1.0450
  126ST     H18 4050   0.158   4.798   1.392 -0.6407  1.5686 -0.3065
  126ST     C19 4051   0.181   4.889   1.583 -0.1801  0.0180  0.0685
  126ST     H1A 4052   0.103   4.963   1.568  0.7875  0.9165 -0.5950
  126ST     H1B 4053   0.171   4.875   1.691 -1.4414  0.2001 -0.0179
  126ST     C1C 4054   0.318   4.953   1.555 -0.1424 -0.1076 -0.1911
  126ST     H1D 4055   0.386   4.875   1.586 -0.2282  0.0510  0.4089
  126ST     H1E 4056   0.338   4.985   1.453  3.6218 -1.0418  0.1853
  126ST     C1F 4057   0.345   5.071   1.645 -0.2878  0.0510 -0.1351
  126ST     H1G 4058   0.298   5.061   1.743 -1.0180  1.0269 -0.3808
  126ST     H1H 4059   0.451   5.090   1.662  0.1190 -0.7718 -1.6646
  126ST     C1I 4060   0.292   5.202   1.583  0.4002 -0.1371 -0.3953
  126ST     H1J 4061   0.184   5.212   1.569  0.6697  0.6685 -2.1142
  126ST     H1K 4062   0.346   5.200   1.488  2.0322 -1.6273  0.5210
  126ST     C1M 4063   0.333   5.333   1.662  0.6608  0.0278 -0.2806
  126ST     H1N 4064   0.317   5.420   1.598  3.3053  0.2558 -0.7010
  126ST     H1O 4065   0.439   5.320   1.687  0.9294 -0.5277 -1.6966
  126ST     C1P 4066   0.251   5.343   1.788 -0.2635 -0.2832  0.2087
  126ST     H1Q 4067   0.147   5.374   1.785  0.4670  2.4685  1.3905
  126ST     H1R 4068   0.248   5.239   1.822  0.4076 -0.3150  0.1866
  126ST     C1S 4069   0.324   5.428   1.886 -0.7213  0.1480 -0.1851
  126ST     H1T 4070   0.424   5.392   1.908  0.3966  2.7485 -0.7868
  126ST     H1U 4071   0.274   5.442   1.982 -1.2732 -1.3361 -0.2436
  126ST     H1V 4072   0.352   5.530   1.858  0.4531  0.1698  1.0155
  127LA     H00 4073  -1.115   3.762   1.633 -1.3735 -1.0936 -1.1708
  127LA     C01 4074  -1.056   3.740   1.545  0.7628 -0.0005 -0.0681
  127LA     H02 4075  -1.138   3.732   1.473  2.0774 -3.2158 -1.2986
  127LA     H03 4076  -0.991   3.823   1.517  2.3309 -1.3103 -0.4060
  127LA     C04 4077  -0.989   3.603   1.552  0.3715  0.2861  0.6402
  127LA     C05 4078  -0.887   3.584   1.466  0.3827 -0.4011 -0.0234
  127LA     H06 4079  -0.812   3.661   1.455  0.6996 -0.2716  2.7100
  127LA     H07 4080  -0.848   3.483   1.468  3.5904  0.7839  0.2986
  127LA     C08 4081  -1.077   3.495   1.582  0.1736  0.8884 -0.0116
  127LA     O09 4082  -1.191   3.507   1.630  0.3269  0.0074 -0.5731
  127LA     O0A 4083  -1.010   3.379   1.579 -0.2406 -0.1166 -0.0113
  127LA     C0B 4084  -1.067   3.249   1.614  0.1893  0.3674  0.4115
  127LA     H0C 4085  -1.091   3.261   1.720  0.7299 -1.4582  0.7597
  127LA     H0D 4086  -0.996   3.167   1.608 -1.5585 -1.1684  0.2282
  127LA     C0E 4087  -1.192   3.216   1.529 -0.1939 -0.6343 -0.0950
  127LA     H0F 4088  -1.268   3.287   1.561  1.8890 -0.0137  3.7627
  127LA     H0G 4089  -1.166   3.237   1.425 -0.4997  1.2467  0.1856
  127LA     C0H 4090  -1.242   3.075   1.553  0.1742  0.6199 -0.5140
  127LA     H0I 4091  -1.185   2.997   1.502 -1.9007 -0.8213 -0.7032
  127LA     H0J 4092  -1.227   3.048   1.658  1.4629 -0.4874 -0.9665
  127LA     C0K 4093  -1.390   3.060   1.528 -0.4964 -0.2694 -0.3026
  127LA     H0M 4094  -1.444   3.152   1.547  1.0072  0.3364  1.1507
  127LA     H0N 4095  -1.410   3.035   1.424  1.5064  1.1487 -1.0517
  127LA     C0O 4096  -1.443   2.935   1.607 -0.0660 -0.6582 -0.0201
  127LA     H0P 4097  -1.542   2.905   1.571 -0.2276 -0.3498  0.1568
  127LA     H0Q 4098  -1.383   2.848   1.581  1.7594  0.4355  0.4463
  127LA     C0R 4099  -1.470   2.953   1.761  0.1074  0.1759  0.4111
  127LA     H0S 4100  -1.369   2.943   1.800  0.6960 -0.4103 -1.2273
  127LA     H0T 4101  -1.496   3.055   1.792 -1.4331  0.8551 -2.9223
  127LA     C0U 4102  -1.580   2.857   1.820  0.3066  0.3131  0.2832
  127LA     H0V 4103  -1.683   2.887   1.803  0.2307 -1.0998 -1.9063
  127LA     H0W 4104  -1.573   2.759   1.773  0.3031 -0.1236  1.1831
  127LA     C0X 4105  -1.552   2.842   1.968 -0.8009 -0.1907 -0.8521
  127LA     H0Y 4106  -1.445   2.823   1.977 -0.6175  0.5630 -1.4333
  127LA     H0Z 4107  -1.563   2.934   2.026 -3.6741  0.3493 -2.1603
  127LA     C10 4108  -1.632   2.726   2.019  0.3539  0.0028  0.5854
  127LA     H11 4109  -1.593   2.636   1.972 -2.9074 -1.3984  0.3759
  127LA     H12 4110  -1.734   2.741   1.982 -0.1480 -1.9087  1.1302
  127LA     C13 4111  -1.641   2.712   2.172  0.5702  0.1114  0.5394
  127LA     H14 4112  -1.677   2.806   2.213 -0.3137  0.1077 -0.2382
  127LA     H15 4113  -1.539   2.697   2.210  0.8707  2.7031  0.8072
  127LA     C16 4114  -1.733   2.598   2.213  0.0517 -0.0670 -1.0014
  127LA     H17 4115  -1.698   2.517   2.149  2.2930 -0.1106  0.2082
  127LA     H18 4116  -1.826   2.632   2.169 -0.4196  0.0695  0.0862
  127LA     C19 4117  -1.737   2.553   2.355  0.7392 -0.2784 -0.3862
  127LA     H1A 4118  -1.828   2.496   2.372  1.5611 -0.8607  2.3182
  127LA     H1B 4119  -1.729   2.636   2.426  1.5315 -0.5373 -0.1704
  127LA     H1C 4120  -1.648   2.491   2.371  1.1133  0.5449  0.7678
  128ST     H00 4121  -1.148   3.614   1.315 -0.2356 -0.2831 -0.2133
  128ST     C01 4122  -1.074   3.537   1.295  0.4871  0.2328  0.4273
  128ST     H02 4123  -1.092   3.443   1.347  0.3994  0.5415  0.9545
  128ST     H03 4124  -1.094   3.519   1.190 -0.3719  0.5481  0.5331
  128ST     C04 4125  -0.925   3.581   1.312  0.1891 -0.9479 -0.3267
  128ST     C05 4126  -0.887   3.709   1.273  0.2833  0.0323 -0.3960
  128ST     H06 4127  -0.960   3.785   1.292 -0.3651 -0.8783  0.8037
  128ST     H07 4128  -0.785   3.745   1.271  0.8336 -1.4496 -0.1601
  128ST     C08 4129  -0.830   3.472   1.288 -0.6063  0.0559 -0.2804
  128ST     O09 4130  -0.709   3.495   1.266 -0.3628  0.3157 -0.6635
  128ST     O0A 4131  -0.892   3.349   1.276 -0.3033 -0.1065  0.3689
  128ST     C0B 4132  -0.818   3.236   1.243 -0.8737 -0.1173 -0.0685
  128ST     H0C 4133  -0.758   3.261   1.155 -0.0263 -2.5594 -0.2198
  128ST     H0D 4134  -0.744   3.205   1.316 -1.7226 -0.2499  0.7425
  128ST     C0E 4135  -0.904   3.110   1.230  0.0426 -0.2050 -0.8364
  128ST     H0F 4136  -0.953   3.102   1.327  1.7130 -0.5826 -0.0132
  128ST     H0G 4137  -0.839   3.024   1.210 -0.0314 -0.8782  1.7165
  128ST     C0H 4138  -1.015   3.113   1.123  0.7623 -0.4933 -0.3547
  128ST     H0I 4139  -0.967   3.107   1.025  0.5182  2.1746 -0.6719
  128ST     H0J 4140  -1.068   3.208   1.121  0.8105 -0.4131  1.3205
  128ST     C0K 4141  -1.123   3.001   1.145 -0.7069 -0.0022  0.3470
  128ST     H0M 4142  -1.201   3.019   1.071  0.3015 -1.1327 -1.0193
  128ST     H0N 4143  -1.173   3.017   1.240 -0.0829 -2.3149  1.1043
  128ST     C0O 4144  -1.066   2.859   1.126  0.2754 -0.5547 -0.3383
  128ST     H0P 4145  -0.975   2.832   1.180  0.7586 -2.0268 -1.8558
  128ST     H0Q 4146  -1.031   2.845   1.024  1.0052  0.5733 -0.2569
  128ST     C0R 4147  -1.165   2.747   1.155  1.1353  0.0045  1.0659
  128ST     H0S 4148  -1.146   2.653   1.102 -1.0256  0.2385 -0.2124
  128ST     H0T 4149  -1.245   2.790   1.095  1.0343  0.5045  1.5489
  128ST     C0U 4150  -1.218   2.712   1.297 -0.6643  1.2229 -0.2314
  128ST     H0V 4151  -1.268   2.802   1.331 -0.4868  0.3845  2.3794
  128ST     H0W 4152  -1.137   2.701   1.370 -1.2160 -0.8345  0.1046
  128ST     C0X 4153  -1.302   2.580   1.294  0.6229 -0.4155  0.0975
  128ST     H0Y 4154  -1.393   2.591   1.237  1.0525  3.9143  0.0976
  128ST     H0Z 4155  -1.236   2.505   1.250 -0.0288 -1.0275  0.1670
  128ST     C10 4156  -1.336   2.536   1.432 -0.0900  0.4723  0.4654
  128ST     H11 4157  -1.257   2.562   1.503  1.1249  4.0412 -2.0385
  128ST     H12 4158  -1.411   2.609   1.462 -1.8135  0.6368 -3.8623
  128ST     C13 4159  -1.384   2.392   1.448 -0.0513  0.6318  0.4809
  128ST     H14 4160  -1.466   2.369   1.380  1.1154 -0.6916 -0.5014
  128ST     H15 4161  -1.312   2.320   1.411  0.4789  1.1389  0.5261
  128ST     C16 4162  -1.410   2.351   1.586  0.7651  0.7508  0.3854
  128ST     H17 4163  -1.323   2.371   1.648  1.5873  0.9363 -0.8136
  128ST     H18 4164  -1.484   2.418   1.630  1.6339  0.6982  1.9521
  128ST     C19 4165  -1.452   2.201   1.604  0.0351  0.8606 -0.2245
  128ST     H1A 4166  -1.528   2.180   1.529  0.2350  0.2787 -0.2587
  128ST     H1B 4167  -1.370   2.132   1.585  1.1562  2.0074  0.3437
  128ST     C1C 4168  -1.514   2.187   1.741  0.0887  0.0648 -0.0610
  128ST     H1D 4169  -1.603   2.249   1.747 -0.5043 -0.7538 -0.4148
  128ST     H1E 4170  -1.537   2.081   1.753 -0.2671 -0.1122 -2.1599
  128ST     C1F 4171  -1.416   2.220   1.856 -0.3141 -0.2327 -0.0025
  128ST     H1G 4172  -1.324   2.169   1.827 -0.4608 -0.6077  0.1907
  128ST     H1H 4173  -1.397   2.327   1.853 -0.4043 -0.0930  2.9291
  128ST     C1I 4174  -1.474   2.178   1.990 -0.0336 -0.4109  0.4645
  128ST     H1J 4175  -1.511   2.075   1.985  0.7166 -0.6639  0.0002
  128ST     H1K 4176  -1.564   2.236   2.011  0.5917  0.0724  1.8638
  128ST     C1M 4177  -1.375   2.197   2.110 -0.0466 -0.0149 -0.1926
  128ST     H1N 4178  -1.327   2.293   2.094 -0.7008  0.0317 -2.0293
  128ST     H1O 4179  -1.300   2.119   2.122 -0.7949 -0.3228  2.9228
  128ST     C1P 4180  -1.446   2.217   2.251 -0.0717  0.0956  0.2513
  128ST     H1Q 4181  -1.372   2.251   2.323 -0.6055  0.4327  0.6494
  128ST     H1R 4182  -1.533   2.283   2.244 -0.6353 -0.7958 -1.5604
  128ST     C1S 4183  -1.475   2.071   2.304  0.4609 -0.1048  0.1625
  128ST     H1T 4184  -1.384   2.017   2.331 -0.9389 -1.6567  1.9358
  128ST     H1U 4185  -1.524   2.017   2.223  0.0899  2.3268 -1.2755
  128ST     H1V 4186  -1.540   2.064   2.391  1.2282  3.3688  1.0920
  129CH3n    C1 4187  -0.915   3.719   1.123 -0.4145 -0.8254  0.0910
  129CH3n    H2 4188  -0.854   3.646   1.071  2.0180  0.5811  0.9031
  129CH3n    H3 4189  -0.908   3.820   1.083  0.3322 -0.2007  1.7458
  129CH3n    H4 4190  -1.017   3.685   1.106 -0.4980 -0.7360  0.4105
   5.05896   5.05896   5.05896
