Single PAMA block polymer
 4190
    1CH3n    C1    1   0.798   1.058   1.263  0.6215  0.6007 -0.1087
    1CH3n    H2    2   0.798   1.095   1.160  0.1236  1.1322  0.0789
    1CH3n    H3    3   0.836   0.958   1.243 -0.8716 -0.2556  1.1930
    1CH3n    H4    4   0.696   1.031   1.290  0.3764  1.9226  0.3549
    2MMA    H00    5   0.798   1.510   1.079  1.2784 -1.2909  0.0549
    2MMA    C01    6   0.762   1.482   1.178 -0.0428 -0.4596 -0.1787
    2MMA    H02    7   0.805   1.567   1.231 -1.6994  1.1590 -1.3681
    2MMA    H03    8   0.658   1.458   1.199  0.1517 -1.1364  0.0342
    2MMA    O04    9   0.841   1.373   1.222  0.0430  0.1716 -0.0887
    2MMA    C05   10   0.794   1.280   1.321 -0.0993 -0.3503 -0.5450
    2MMA    O06   11   0.684   1.279   1.378  0.2294 -0.3304  0.2802
    2MMA    C07   12   0.882   1.163   1.341 -0.4405 -0.6654 -0.3145
    2MMA    C08   13   0.905   1.136   1.474 -0.1973 -1.1313 -0.7048
    2MMA    H09   14   0.848   1.195   1.543 -0.6300 -0.6793 -1.4463
    2MMA    H0A   15   1.012   1.141   1.493 -0.5426  0.9860  0.8235
    2MMA    C0B   16   1.008   1.165   1.249 -0.8707 -0.0926 -0.2123
    2MMA    H0C   17   0.984   1.217   1.156 -1.6420 -0.5157 -0.2530
    2MMA    H0D   18   1.090   1.225   1.288 -0.9443  0.3955 -0.8036
    2MMA    H0E   19   1.041   1.064   1.227 -4.1536 -0.9307 -1.6095
    3MMA    H00   20   1.054   0.616   1.421  0.3243  0.2846 -1.3638
    3MMA    C01   21   0.996   0.680   1.354 -0.4312  0.3143 -0.6856
    3MMA    H02   22   1.064   0.727   1.284  1.5162 -0.9622  0.2802
    3MMA    H03   23   0.920   0.624   1.299  1.2780 -2.3279 -0.4658
    3MMA    O04   24   0.932   0.775   1.434  0.0738 -0.0654  0.1972
    3MMA    C05   25   0.979   0.899   1.451  0.2520  0.6761  0.1657
    3MMA    O06   26   1.095   0.930   1.423 -0.0663  0.3446 -0.2897
    3MMA    C07   27   0.897   0.989   1.543 -0.1037 -0.2125 -0.1614
    3MMA    C08   28   0.949   0.988   1.675 -0.0267 -0.5185  0.4841
    3MMA    H09   29   0.921   0.894   1.719  1.8438 -0.8515  1.0413
    3MMA    H0A   30   1.056   0.978   1.664 -0.0629  1.0142 -1.5790
    3MMA    C0B   31   0.750   0.947   1.540  0.1528  0.1941 -0.5956
    3MMA    H0C   32   0.715   0.886   1.624  0.6975  1.6562  0.7161
    3MMA    H0D   33   0.687   1.036   1.538  0.4080  0.4284  0.8526
    3MMA    H0E   34   0.715   0.879   1.462 -2.5472 -0.1076  0.7810
    4MMA    H00   35   0.515   1.111   1.883 -1.8706 -0.4154 -1.0952
    4MMA    C01   36   0.549   1.093   1.781 -0.1335  0.3229 -0.6729
    4MMA    H02   37   0.491   1.024   1.720 -1.8287  0.2784  0.9280
    4MMA    H03   38   0.543   1.193   1.740 -0.3565 -0.1703 -1.8633
    4MMA    O04   39   0.684   1.048   1.799 -0.0294 -0.3227  0.1136
    4MMA    C05   40   0.785   1.150   1.789  0.6332  0.5296  0.1299
    4MMA    O06   41   0.756   1.268   1.776  0.3352 -0.1880 -0.0138
    4MMA    C07   42   0.925   1.095   1.797 -1.0758  0.5273  0.4601
    4MMA    C08   43   0.949   1.016   1.910 -0.3574 -0.1518  0.4704
    4MMA    H09   44   1.049   0.976   1.902 -0.4785 -0.7822  1.9101
    4MMA    H0A   45   0.869   0.945   1.921 -0.7258  0.0390 -0.8742
    4MMA    C0B   46   1.036   1.201   1.762 -0.2953 -0.4682  0.6660
    4MMA    H0C   47   1.142   1.177   1.774 -0.1904 -0.7632 -0.8273
    4MMA    H0D   48   1.008   1.255   1.671 -1.8399 -1.1495  0.7282
    4MMA    H0E   49   1.023   1.279   1.837 -2.1107  0.5086 -0.6295
    5MMA    H00   50   1.328   1.188   2.215 -0.0828  1.2349 -1.9008
    5MMA    C01   51   1.325   1.095   2.158 -0.7068 -0.2058  0.4486
    5MMA    H02   52   1.384   1.107   2.067 -1.5493 -5.0990 -0.9203
    5MMA    H03   53   1.375   1.016   2.214 -1.6876 -1.3080 -0.2065
    5MMA    O04   54   1.201   1.044   2.115  0.1969  0.2638  0.0417
    5MMA    C05   55   1.107   1.129   2.066  0.0460 -0.2401 -0.5540
    5MMA    O06   56   1.127   1.249   2.038 -0.3342  0.6093  0.4882
    5MMA    C07   57   0.971   1.070   2.064 -0.1655 -0.1086 -0.1046
    5MMA    C08   58   0.865   1.156   2.083 -0.7595  0.1135  0.5231
    5MMA    H09   59   0.883   1.251   2.035  0.1517  0.7641  2.1101
    5MMA    H0A   60   0.773   1.104   2.058 -0.0208 -0.3615 -1.2990
    5MMA    C0B   61   0.972   0.927   2.133  0.3777 -0.2616  0.0441
    5MMA    H0C   62   1.035   0.852   2.086 -0.1427 -0.5547 -0.1891
    5MMA    H0D   63   1.011   0.934   2.235 -1.6065  1.3067  0.7307
    5MMA    H0E   64   0.873   0.881   2.138 -0.7153  1.9047 -0.9839
    6MMA    H00   65   0.457   1.380   2.242  2.9232  0.1123  0.0149
    6MMA    C01   66   0.471   1.303   2.167 -0.2136 -0.4327 -0.0977
    6MMA    H02   67   0.386   1.234   2.163  0.0147 -0.6760 -0.9932
    6MMA    H03   68   0.486   1.351   2.070 -1.4891 -0.0272 -0.1041
    6MMA    O04   69   0.589   1.228   2.192  0.3002 -0.3951 -0.1590
    6MMA    C05   70   0.709   1.289   2.187 -1.6072  0.1882  0.0842
    6MMA    O06   71   0.721   1.408   2.153  0.2250  0.0167  0.0502
    6MMA    C07   72   0.825   1.207   2.229 -0.0652  0.0036 -0.9066
    6MMA    C08   73   0.934   1.273   2.280 -0.4848  0.4468 -0.4434
    6MMA    H09   74   0.940   1.355   2.211  1.0933 -0.3073 -1.2379
    6MMA    H0A   75   1.012   1.201   2.302  0.1542  1.9881  2.7170
    6MMA    C0B   76   0.778   1.080   2.305  0.5143 -0.0979 -0.5263
    6MMA    H0C   77   0.717   1.019   2.239 -2.4791  1.3115  0.8212
    6MMA    H0D   78   0.866   1.032   2.347  0.7331  1.5024  0.8958
    6MMA    H0E   79   0.711   1.117   2.383 -0.9189 -0.2149 -1.6888
    7MMA    H00   80   0.716   1.671   2.459 -0.7250 -0.2726 -0.5603
    7MMA    C01   81   0.756   1.660   2.358 -0.1725 -0.4496 -0.3245
    7MMA    H02   82   0.665   1.625   2.310 -0.1216 -2.1213  0.7457
    7MMA    H03   83   0.796   1.752   2.316 -1.6254  0.4891  0.3299
    7MMA    O04   84   0.861   1.558   2.366 -0.2244  0.1742 -0.1566
    7MMA    C05   85   0.827   1.437   2.420 -0.2898 -0.3092  0.1220
    7MMA    O06   86   0.720   1.423   2.475 -0.3516  0.0178  0.1278
    7MMA    C07   87   0.939   1.341   2.423  0.9641 -0.8903  0.0526
    7MMA    C08   88   0.936   1.237   2.516  1.0853  0.6658  0.1819
    7MMA    H09   89   1.016   1.166   2.501  1.3410  0.6152  1.6479
    7MMA    H0A   90   0.833   1.206   2.521  0.3633  2.6846 -1.3845
    7MMA    C0B   91   1.074   1.421   2.411 -0.7424 -0.5281  0.8673
    7MMA    H0C   92   1.084   1.468   2.313 -2.0460 -3.1011 -0.5600
    7MMA    H0D   93   1.066   1.493   2.492  0.7772  0.1221  0.4704
    7MMA    H0E   94   1.168   1.365   2.414  0.0440  0.6657 -0.3951
    8MMA    H00   95   0.848   0.863   2.672 -1.1860 -1.0956 -0.4019
    8MMA    C01   96   0.778   0.936   2.713  0.1941  0.3300 -0.5179
    8MMA    H02   97   0.678   0.903   2.683 -0.2471  0.9690  0.2384
    8MMA    H03   98   0.774   0.923   2.821 -1.6981  0.4136 -0.5660
    8MMA    O04   99   0.810   1.069   2.679 -0.2472  0.0365  0.2866
    8MMA    C05  100   0.938   1.107   2.703  0.3133  0.1881  0.5682
    8MMA    O06  101   1.023   1.034   2.742  0.0476 -0.4959 -0.1967
    8MMA    C07  102   0.964   1.249   2.673 -0.4562  0.8644 -0.7031
    8MMA    C08  103   0.875   1.345   2.718 -0.5625 -0.2158  0.1805
    8MMA    H09  104   0.773   1.315   2.703 -0.6662 -0.1547  0.7446
    8MMA    H0A  105   0.913   1.441   2.685 -1.0305 -0.2710 -0.5093
    8MMA    C0B  106   1.115   1.279   2.688 -0.0680 -0.2612  0.0585
    8MMA    H0C  107   1.161   1.254   2.784 -1.6770 -1.5835  0.4898
    8MMA    H0D  108   1.173   1.248   2.601 -3.1940 -0.2653 -2.0808
    8MMA    H0E  109   1.121   1.388   2.694 -2.0521 -0.1158 -0.2880
    9MMA    H00  110   1.233   1.573   2.962 -1.1682 -0.2506 -0.9458
    9MMA    C01  111   1.183   1.501   3.027  0.3103  0.1701  0.6946
    9MMA    H02  112   1.258   1.438   3.075 -0.6276 -0.3503  1.4972
    9MMA    H03  113   1.144   1.564   3.108 -2.0310  0.4825 -0.6251
    9MMA    O04  114   1.087   1.424   2.956  0.3804  0.2182  0.8046
    9MMA    C05  115   0.980   1.476   2.897 -0.0626  0.1091 -0.2338
    9MMA    O06  116   0.983   1.596   2.864 -0.1469  0.1841  0.0259
    9MMA    C07  117   0.866   1.378   2.877 -0.4666 -0.5414 -0.2828
    9MMA    C08  118   0.871   1.253   2.942  0.3415  0.3166  0.4922
    9MMA    H09  119   0.975   1.222   2.939  0.5605  1.1023 -0.2985
    9MMA    H0A  120   0.796   1.187   2.903 -0.9206  0.9845  1.7280
    9MMA    C0B  121   0.736   1.453   2.887 -0.0964 -0.1603 -0.5617
    9MMA    H0C  122   0.741   1.509   2.980 -0.9100  0.2795 -0.7718
    9MMA    H0D  123   0.717   1.524   2.806 -0.4410  1.7122  1.1268
    9MMA    H0E  124   0.652   1.383   2.885  0.8098 -1.4323  2.8865
   10MMA    H00  125   0.447   1.382   3.102 -1.0057  0.2078  1.1573
   10MMA    C01  126   0.515   1.383   3.187  0.5140 -0.0709 -0.0305
   10MMA    H02  127   0.495   1.485   3.222 -0.1396  0.0414 -0.7266
   10MMA    H03  128   0.497   1.320   3.273  2.7180  0.5480  0.9351
   10MMA    O04  129   0.653   1.352   3.156  0.2966 -0.4317  0.4464
   10MMA    C05  130   0.693   1.244   3.094 -0.4116  0.2755  0.3050
   10MMA    O06  131   0.612   1.155   3.059 -0.1500  0.1196 -0.0322
   10MMA    C07  132   0.838   1.226   3.101 -0.2774  0.6286  0.0979
   10MMA    C08  133   0.874   1.094   3.122 -0.5235 -0.4238 -0.1681
   10MMA    H09  134   0.980   1.083   3.104 -0.7405 -0.4120 -1.4753
   10MMA    H0A  135   0.815   1.029   3.059 -0.5792  0.2120 -0.7757
   10MMA    C0B  136   0.916   1.328   3.178  0.2660 -0.0596 -0.2371
   10MMA    H0C  137   1.020   1.298   3.161  0.5155  0.7450 -0.1482
   10MMA    H0D  138   0.915   1.430   3.138 -2.0206 -0.0312 -0.1783
   10MMA    H0E  139   0.882   1.328   3.281  2.3595 -0.9178  0.4807
   11MMA    H00  140   1.287   1.123   3.349  0.1163 -1.6392  0.6556
   11MMA    C01  141   1.190   1.140   3.396 -0.2302 -0.9593 -0.2824
   11MMA    H02  142   1.199   1.109   3.500 -1.2005 -0.8429 -0.1593
   11MMA    H03  143   1.174   1.247   3.408  1.9573 -0.7645  1.2350
   11MMA    O04  144   1.091   1.071   3.316  0.0230 -0.0094  0.4545
   11MMA    C05  145   0.958   1.070   3.356 -0.3101  0.0280  0.1122
   11MMA    O06  146   0.923   1.136   3.457 -0.0806  0.0026 -0.4644
   11MMA    C07  147   0.864   1.012   3.263 -0.4196 -0.2711  0.3528
   11MMA    C08  148   0.898   0.885   3.221  0.1459  0.0411 -0.1360
   11MMA    H09  149   0.811   0.852   3.165  0.2295  0.2269 -0.3791
   11MMA    H0A  150   1.000   0.884   3.187  0.3267 -1.0579  0.4470
   11MMA    C0B  151   0.720   1.027   3.305 -0.5562  0.0478 -0.0256
   11MMA    H0C  152   0.683   1.127   3.327 -0.4988 -0.4769  2.5535
   11MMA    H0D  153   0.649   0.978   3.237  0.0562 -1.4695  0.4046
   11MMA    H0E  154   0.715   0.981   3.404 -1.0025  0.5156  0.1666
   12MMA    H00  155   1.321   0.708   3.406 -0.6542  2.1861  2.0880
   12MMA    C01  156   1.313   0.792   3.338  0.4549  0.3431 -0.3912
   12MMA    H02  157   1.336   0.882   3.395 -2.4644  0.7139  0.2639
   12MMA    H03  158   1.385   0.788   3.255  1.0351 -0.0447  0.1234
   12MMA    O04  159   1.175   0.784   3.284  0.1884 -0.2587  0.9781
   12MMA    C05  160   1.068   0.797   3.373  0.5673  0.2847  0.4021
   12MMA    O06  161   1.086   0.838   3.486  0.0612 -0.0057  0.4407
   12MMA    C07  162   0.936   0.757   3.320 -0.0373  0.5816  0.7121
   12MMA    C08  163   0.947   0.635   3.245  0.1596 -0.2923 -0.0563
   12MMA    H09  164   0.929   0.563   3.324 -0.6745 -0.2357 -0.1898
   12MMA    H0A  165   1.044   0.609   3.206 -0.5770 -0.6125 -1.7356
   12MMA    C0B  166   0.831   0.754   3.431  0.2563  0.2677  0.4500
   12MMA    H0C  167   0.842   0.665   3.494 -1.6193 -0.3086  0.0065
   12MMA    H0D  168   0.841   0.842   3.495  0.7335  1.0912 -0.7467
   12MMA    H0E  169   0.725   0.764   3.405  0.2611  0.5987  0.5558
   13MMA    H00  170   0.497   0.616   3.294  0.0888  0.4597  0.3492
   13MMA    C01  171   0.557   0.532   3.328 -0.7889 -0.2776  0.0889
   13MMA    H02  172   0.565   0.553   3.435  1.3108  0.9236 -0.2755
   13MMA    H03  173   0.507   0.436   3.315  0.6555 -1.4283  2.6212
   13MMA    O04  174   0.686   0.530   3.268 -0.0382  0.0124 -0.3829
   13MMA    C05  175   0.716   0.596   3.152  0.5136  0.4240 -1.0757
   13MMA    O06  176   0.640   0.671   3.104 -0.0308 -0.0493 -0.4406
   13MMA    C07  177   0.857   0.575   3.112  0.5086  0.0341  0.1922
   13MMA    C08  178   0.889   0.441   3.123 -0.5884 -0.2286  0.0791
   13MMA    H09  179   0.990   0.412   3.097  0.2227  0.4550  2.3792
   13MMA    H0A  180   0.852   0.401   3.216  0.6771  1.2020  1.2350
   13MMA    C0B  181   0.911   0.657   2.996  0.2552  0.2654 -0.2282
   13MMA    H0C  182   0.831   0.682   2.927 -1.6457 -1.6650  1.1985
   13MMA    H0D  183   0.966   0.749   3.014  0.5567  0.2571 -1.1280
   13MMA    H0E  184   0.972   0.596   2.930  0.7766  1.6410 -1.0214
   14MMA    H00  185   0.947  -0.054   3.190 -0.4710  0.2611  0.3903
   14MMA    C01  186   0.992   0.045   3.198 -0.3707  0.2973 -0.4998
   14MMA    H02  187   1.033   0.068   3.297  2.8484 -0.6225 -1.5355
   14MMA    H03  188   1.088   0.035   3.147 -0.8016 -1.9784 -0.9144
   14MMA    O04  189   0.908   0.152   3.158  0.1595  0.1160 -0.3359
   14MMA    C05  190   0.914   0.213   3.040 -0.4266  0.4434 -0.2266
   14MMA    O06  191   0.992   0.170   2.953  0.5727  0.2069 -0.1916
   14MMA    C07  192   0.825   0.325   3.020  0.3606  0.0794 -0.6305
   14MMA    C08  193   0.694   0.308   3.067 -0.2322 -0.4642 -0.1393
   14MMA    H09  194   0.630   0.392   3.047 -1.3813 -1.5353 -1.0380
   14MMA    H0A  195   0.694   0.265   3.167 -0.4208  1.2685  0.6320
   14MMA    C0B  196   0.846   0.386   2.883 -0.4506  0.0977  0.4207
   14MMA    H0C  197   0.952   0.407   2.864 -0.4928  0.7813  0.8852
   14MMA    H0D  198   0.828   0.321   2.798 -2.4141 -0.5174  1.2773
   14MMA    H0E  199   0.781   0.470   2.860 -0.0009 -0.2835 -2.4287
   15MMA    H00  200   0.221   0.397   3.154 -1.7877 -1.2737 -0.4324
   15MMA    C01  201   0.272   0.301   3.161  0.1779 -0.2679 -0.5405
   15MMA    H02  202   0.320   0.308   3.259  2.8658  0.2804 -1.8511
   15MMA    H03  203   0.196   0.223   3.172 -0.5205  0.5522  0.6538
   15MMA    O04  204   0.366   0.280   3.057  0.0201  0.1508  0.0285
   15MMA    C05  205   0.471   0.198   3.091  0.2020  0.7992  0.1180
   15MMA    O06  206   0.479   0.140   3.205  0.1589 -0.4351  0.6096
   15MMA    C07  207   0.584   0.199   2.996 -0.6734  0.7023  0.1221
   15MMA    C08  208   0.657   0.081   2.989  0.3462 -0.7050  0.3653
   15MMA    H09  209   0.685   0.041   3.085  3.4413  0.4403 -0.0320
   15MMA    H0A  210   0.729   0.097   2.911  0.5024  1.2928  0.9050
   15MMA    C0B  211   0.551   0.269   2.860  0.0472 -0.5352  0.5412
   15MMA    H0C  212   0.532   0.377   2.860  2.4190 -0.0829 -0.4582
   15MMA    H0D  213   0.628   0.248   2.786 -1.3625  1.7841 -1.6604
   15MMA    H0E  214   0.451   0.233   2.833 -0.5931  0.2556  1.8189
   16MMA    H00  215   0.277  -0.185   3.226  0.2917  3.4931  2.2529
   16MMA    C01  216   0.385  -0.169   3.223  0.6296  1.0932  0.0936
   16MMA    H02  217   0.408  -0.097   3.301 -0.2785  2.4973 -0.9256
   16MMA    H03  218   0.430  -0.263   3.256 -0.9031 -0.7254 -2.8209
   16MMA    O04  219   0.435  -0.117   3.100  0.0977 -0.6825  0.0463
   16MMA    C05  220   0.562  -0.140   3.056  0.2208  0.6686  0.5170
   16MMA    O06  221   0.644  -0.206   3.122 -0.0289  0.1696  0.0059
   16MMA    C07  222   0.594  -0.061   2.933 -0.1363  0.2068 -0.3440
   16MMA    C08  223   0.492  -0.028   2.852 -0.0627  0.1250 -0.3226
   16MMA    H09  224   0.410   0.014   2.910  0.7043  3.5213 -1.5869
   16MMA    H0A  225   0.525   0.039   2.774 -0.3952 -1.1956 -1.6180
   16MMA    C0B  226   0.716  -0.129   2.869  0.0311 -0.3642 -0.0731
   16MMA    H0C  227   0.810  -0.134   2.925 -1.5236  0.5546  2.7050
   16MMA    H0D  228   0.697  -0.231   2.838 -0.8599  0.1963 -1.3991
   16MMA    H0E  229   0.742  -0.082   2.774 -3.4573 -2.0301 -1.9347
   17MMA    H00  230   0.022   0.014   2.751  2.4057  2.4038 -0.8550
   17MMA    C01  231   0.068  -0.029   2.840 -0.0055 -0.0033 -0.6735
   17MMA    H02  232   0.100   0.060   2.894  1.0661 -0.5456 -0.4088
   17MMA    H03  233  -0.004  -0.085   2.899  0.1120 -1.3030 -1.7502
   17MMA    O04  234   0.185  -0.105   2.806  0.5594  0.4084 -0.0085
   17MMA    C05  235   0.284  -0.056   2.727 -0.6356  0.0961 -0.2613
   17MMA    O06  236   0.274   0.044   2.645  0.5072  0.4952  0.0044
   17MMA    C07  237   0.417  -0.128   2.747 -0.1367  0.1734  0.1734
   17MMA    C08  238   0.490  -0.132   2.630  0.3548  0.4407 -0.2225
   17MMA    H09  239   0.472  -0.039   2.576 -0.2846  0.3029 -0.2536
   17MMA    H0A  240   0.589  -0.175   2.637  0.4653  0.8636  0.8935
   17MMA    C0B  241   0.396  -0.264   2.811  0.0873 -0.5038 -0.3496
   17MMA    H0C  242   0.489  -0.320   2.815  1.3918  1.5728 -0.7684
   17MMA    H0D  243   0.366  -0.249   2.914  1.8354 -0.5673  0.1913
   17MMA    H0E  244   0.319  -0.327   2.766 -1.2356  1.2351 -0.5487
   18MMA    H00  245   0.524  -0.622   2.509  0.2730 -1.6267  1.4906
   18MMA    C01  246   0.435  -0.588   2.564 -0.1373 -0.3162  0.0632
   18MMA    H02  247   0.356  -0.648   2.518  0.0862 -1.2751  0.9037
   18MMA    H03  248   0.457  -0.618   2.666 -1.2231 -0.6942  0.1925
   18MMA    O04  249   0.409  -0.450   2.550 -0.4759 -0.8930 -0.1604
   18MMA    C05  250   0.505  -0.360   2.541 -0.1886  0.2633  0.3655
   18MMA    O06  251   0.618  -0.393   2.582  0.2374  0.6626  0.1466
   18MMA    C07  252   0.459  -0.228   2.502  1.3449 -0.3071 -0.0272
   18MMA    C08  253   0.526  -0.190   2.386  0.3182 -0.5484  0.2615
   18MMA    H09  254   0.618  -0.243   2.366  1.2166  0.5844  1.3198
   18MMA    H0A  255   0.458  -0.184   2.302  0.5555  0.3219  0.1252
   18MMA    C0B  256   0.305  -0.234   2.479 -0.0641 -0.9807 -0.0486
   18MMA    H0C  257   0.266  -0.265   2.576  0.4990  2.3149  1.3189
   18MMA    H0D  258   0.260  -0.135   2.468 -0.6015 -0.9958  1.8373
   18MMA    H0E  259   0.263  -0.302   2.405 -3.0692 -0.5596  1.1737
   19MMA    H00  260   0.780   0.257   2.580 -2.8542  0.1659 -1.6982
   19MMA    C01  261   0.790   0.149   2.577  0.1121  0.3164  0.3586
   19MMA    H02  262   0.878   0.122   2.518 -0.2174  2.2538 -1.0785
   19MMA    H03  263   0.790   0.105   2.676 -0.3800  1.2994  0.8012
   19MMA    O04  264   0.685   0.104   2.497 -0.0193  0.3608  0.1991
   19MMA    C05  265   0.689  -0.020   2.449  0.0558 -0.7054  0.5687
   19MMA    O06  266   0.792  -0.093   2.470  0.1183 -0.6133 -0.7286
   19MMA    C07  267   0.584  -0.040   2.347 -0.6884 -0.3937  0.1020
   19MMA    C08  268   0.645  -0.059   2.226  0.0718 -0.1094  0.7925
   19MMA    H09  269   0.732  -0.124   2.235  1.4246  1.6175  0.4650
   19MMA    H0A  270   0.574  -0.082   2.148 -0.6952 -2.1295  2.0390
   19MMA    C0B  271   0.467   0.056   2.341 -0.1329 -0.4884  0.4036
   19MMA    H0C  272   0.478   0.161   2.369 -1.9688 -0.2296  0.2631
   19MMA    H0D  273   0.413   0.049   2.246  1.9755 -0.1689 -0.8584
   19MMA    H0E  274   0.375   0.028   2.393 -0.6364  0.3960  0.0052
   20MMA    H00  275   0.399   0.030   1.830 -0.1757  0.1572  0.0651
   20MMA    C01  276   0.417   0.084   1.923  0.5210  0.2402 -0.1150
   20MMA    H02  277   0.407   0.184   1.879  0.0017 -0.2348 -1.1024
   20MMA    H03  278   0.341   0.071   2.000 -0.1938  2.0148 -0.4820
   20MMA    O04  279   0.548   0.067   1.972 -0.0647  0.0709  0.1054
   20MMA    C05  280   0.588   0.132   2.083  0.4226  0.3283  0.8122
   20MMA    O06  281   0.528   0.229   2.128 -0.2055  0.1160  0.0975
   20MMA    C07  282   0.711   0.068   2.140 -0.2411  0.0225  0.0859
   20MMA    C08  283   0.794   0.144   2.222  0.1291 -0.0395 -0.4880
   20MMA    H09  284   0.873   0.088   2.269  0.1222  1.6315  1.5800
   20MMA    H0A  285   0.726   0.206   2.279  2.3232  0.3869  1.7488
   20MMA    C0B  286   0.780  -0.033   2.041 -0.6333 -0.2092 -0.5284
   20MMA    H0C  287   0.802   0.029   1.954 -0.5490 -1.1866 -1.2129
   20MMA    H0D  288   0.876  -0.062   2.084 -0.3535  0.5786 -0.6172
   20MMA    H0E  289   0.719  -0.117   2.005  0.5708 -1.1892 -0.3140
   21MMA    H00  290   1.042   0.375   2.530 -2.1645 -1.2819 -0.9818
   21MMA    C01  291   1.112   0.370   2.447  0.2078 -0.0056  0.8607
   21MMA    H02  292   1.119   0.473   2.413 -1.3189 -0.9892 -2.6954
   21MMA    H03  293   1.209   0.328   2.472  1.7417  2.0245 -1.4980
   21MMA    O04  294   1.049   0.302   2.342  0.1764 -0.5250 -0.2371
   21MMA    C05  295   0.920   0.333   2.304  0.0655 -0.2568  0.1661
   21MMA    O06  296   0.858   0.406   2.380  0.0321 -0.6515 -0.1279
   21MMA    C07  297   0.889   0.273   2.170  0.1333  0.2017  0.4550
   21MMA    C08  298   0.808   0.354   2.094 -0.2036  0.8643 -0.5802
   21MMA    H09  299   0.723   0.387   2.151 -0.6315 -0.8582 -0.1673
   21MMA    H0A  300   0.785   0.304   2.000  0.4679 -1.6192  0.5344
   21MMA    C0B  301   1.008   0.201   2.095  0.5044 -0.6238 -0.6766
   21MMA    H0C  302   1.029   0.099   2.126  1.5166 -0.4488 -0.7867
   21MMA    H0D  303   0.979   0.194   1.990  0.8166 -2.4249 -0.6471
   21MMA    H0E  304   1.100   0.258   2.104  0.2609 -0.5356  1.5561
   22MMA    H00  305   0.739   0.698   2.362  0.0100 -2.0743  0.7195
   22MMA    C01  306   0.679   0.699   2.271  0.9764 -0.0291  0.0908
   22MMA    H02  307   0.575   0.672   2.289 -0.2034  3.8803 -0.3337
   22MMA    H03  308   0.675   0.800   2.231  2.4161 -0.5644 -1.4429
   22MMA    O04  309   0.713   0.616   2.161  0.0601  0.9147  1.6868
   22MMA    C05  310   0.842   0.593   2.134  0.1053  0.5665 -0.0189
   22MMA    O06  311   0.923   0.650   2.200  1.0509  0.0630  0.3068
   22MMA    C07  312   0.862   0.490   2.029 -0.6474 -0.0546  0.1981
   22MMA    C08  313   0.787   0.521   1.917  0.2759 -0.0689  0.4643
   22MMA    H09  314   0.681   0.516   1.937  0.3077  1.7919  1.1996
   22MMA    H0A  315   0.805   0.626   1.896  1.1082 -0.1290  0.8758
   22MMA    C0B  316   1.014   0.488   2.012 -0.2844  0.0362 -0.2126
   22MMA    H0C  317   1.079   0.484   2.100 -0.3372  0.8995 -0.1356
   22MMA    H0D  318   1.047   0.422   1.932  2.3222  1.4877 -0.3873
   22MMA    H0E  319   1.042   0.583   1.969 -1.1062 -0.2508 -1.3991
   23MMA    H00  320   0.349   0.483   1.722  0.3849 -1.1051 -0.7018
   23MMA    C01  321   0.443   0.516   1.679  0.5237 -0.7792 -0.1510
   23MMA    H02  322   0.436   0.496   1.572 -1.9979 -1.0843  0.0523
   23MMA    H03  323   0.450   0.624   1.673 -1.4126 -0.7199 -1.7100
   23MMA    O04  324   0.562   0.466   1.730  0.1856  0.5866 -0.0904
   23MMA    C05  325   0.682   0.526   1.707 -0.3306  0.6308 -0.3501
   23MMA    O06  326   0.685   0.628   1.640  0.4901 -0.0063  0.0441
   23MMA    C07  327   0.805   0.463   1.763 -0.3173  0.7267  0.2712
   23MMA    C08  328   0.803   0.327   1.766  0.9147  0.4787 -0.1955
   23MMA    H09  329   0.711   0.285   1.805  0.5325  1.3122 -0.1707
   23MMA    H0A  330   0.897   0.301   1.812  1.7514 -1.6864 -3.0064
   23MMA    C0B  331   0.930   0.537   1.714 -0.0471  0.9290  0.0270
   23MMA    H0C  332   1.022   0.479   1.725 -0.3947  0.3100 -0.2852
   23MMA    H0D  333   0.921   0.553   1.606 -0.1849  3.6438  0.3894
   23MMA    H0E  334   0.934   0.638   1.756 -1.0687  1.4226 -1.0233
   24MMA    H00  335   1.215   0.222   1.756  0.2578 -0.8826 -0.4115
   24MMA    C01  336   1.166   0.153   1.687 -0.0284 -0.3243 -0.7709
   24MMA    H02  337   1.208   0.164   1.587  0.1853  2.3547 -0.4370
   24MMA    H03  338   1.185   0.050   1.718 -1.8262 -0.1503  1.0276
   24MMA    O04  339   1.024   0.159   1.701 -0.4260  0.0417 -0.0089
   24MMA    C05  340   0.967   0.243   1.615  0.2176 -0.0202  0.0259
   24MMA    O06  341   1.034   0.322   1.550  0.6564 -0.4812 -0.4469
   24MMA    C07  342   0.819   0.240   1.629  0.4686 -0.0419  0.1353
   24MMA    C08  343   0.758   0.123   1.664  0.0335  0.8729 -0.4524
   24MMA    H09  344   0.813   0.076   1.744  0.3188 -0.4998 -1.4232
   24MMA    H0A  345   0.652   0.140   1.675  0.0351  0.5453  0.0857
   24MMA    C0B  346   0.757   0.315   1.510 -0.2089  0.2878  0.2355
   24MMA    H0C  347   0.791   0.419   1.515  1.3931 -0.2878  1.6935
   24MMA    H0D  348   0.780   0.284   1.408  1.6400 -1.6344  1.1986
   24MMA    H0E  349   0.649   0.324   1.520 -0.4783 -0.6284 -1.5604
   25MMA    H00  350   1.022  -0.328   1.694 -0.1018 -0.6349 -0.7342
   25MMA    C01  351   1.030  -0.234   1.639 -0.0386 -0.3891 -0.3025
   25MMA    H02  352   1.123  -0.193   1.680  0.0983 -0.1895 -0.8137
   25MMA    H03  353   1.049  -0.258   1.535 -0.0858 -0.2046 -0.3545
   25MMA    O04  354   0.924  -0.144   1.660  0.0257  0.3368 -0.2550
   25MMA    C05  355   0.890  -0.056   1.561  0.2830  0.0096 -0.3254
   25MMA    O06  356   0.967  -0.032   1.473 -0.3857  0.3908  0.4831
   25MMA    C07  357   0.753  -0.011   1.563 -0.1413  0.0035 -0.4952
   25MMA    C08  358   0.701   0.025   1.440 -0.6630  0.6029  0.1703
   25MMA    H09  359   0.781   0.061   1.376  0.3912 -0.6692  0.7294
   25MMA    H0A  360   0.608   0.078   1.451 -1.5076 -0.5599 -1.2057
   25MMA    C0B  361   0.668  -0.097   1.660  0.4542 -0.1782  0.3113
   25MMA    H0C  362   0.669  -0.199   1.622  3.2638 -0.0775  0.0017
   25MMA    H0D  363   0.707  -0.094   1.761 -1.7605  0.3536  1.1849
   25MMA    H0E  364   0.564  -0.065   1.669 -0.2785 -2.8078  1.8198
   26MMA    H00  365   1.024  -0.209   1.190 -0.1822 -0.0476 -1.7493
   26MMA    C01  366   0.940  -0.263   1.231  0.2364  0.5630 -0.0724
   26MMA    H02  367   0.910  -0.333   1.154 -0.2381 -0.5977  1.1417
   26MMA    H03  368   0.963  -0.302   1.330 -1.5333  0.0325  0.1493
   26MMA    O04  369   0.840  -0.164   1.254  0.6208 -0.2347  0.0203
   26MMA    C05  370   0.727  -0.195   1.332  0.3362 -0.7923  0.4944
   26MMA    O06  371   0.716  -0.308   1.387  0.1836  0.2294  0.4406
   26MMA    C07  372   0.629  -0.082   1.346 -0.2988  0.6024 -0.1157
   26MMA    C08  373   0.600  -0.028   1.218 -0.0206  0.2833  0.1220
   26MMA    H09  374   0.497  -0.047   1.192  0.5146 -2.2309 -0.3061
   26MMA    H0A  375   0.671  -0.068   1.146  2.4254  1.0163  2.0464
   26MMA    C0B  376   0.496  -0.124   1.420 -0.3324  0.0328 -0.0516
   26MMA    H0C  377   0.503  -0.219   1.474  1.1759 -1.2046 -2.3436
   26MMA    H0D  378   0.457  -0.047   1.486 -1.4298 -0.1335 -0.4931
   26MMA    H0E  379   0.418  -0.144   1.347 -0.1512  0.9765 -0.5068
   27MMA    H00  380   0.899   0.329   1.048 -0.0163 -0.1273  0.3679
   27MMA    C01  381   0.832   0.385   1.112 -0.1481 -0.2710  0.3574
   27MMA    H02  382   0.874   0.378   1.212 -0.9431 -1.6349  0.6051
   27MMA    H03  383   0.814   0.490   1.085  4.6325  1.1440  2.1623
   27MMA    O04  384   0.713   0.308   1.111 -0.4865  0.1720 -0.2556
   27MMA    C05  385   0.722   0.180   1.146  0.7562  0.6525 -0.8305
   27MMA    O06  386   0.833   0.123   1.155  0.0075 -0.0166 -0.1848
   27MMA    C07  387   0.588   0.126   1.154 -0.1188 -0.3548 -0.2957
   27MMA    C08  388   0.532   0.119   1.024  0.5057 -0.1876  0.1866
   27MMA    H09  389   0.614   0.097   0.956  1.1591  2.4348  0.0704
   27MMA    H0A  390   0.496   0.220   1.007 -0.7025 -0.5039  0.7946
   27MMA    C0B  391   0.501   0.203   1.255  0.4955  0.4353  0.3267
   27MMA    H0C  392   0.549   0.271   1.326  2.0351 -0.3801  0.0837
   27MMA    H0D  393   0.447   0.277   1.195 -0.0903 -0.3965 -0.1707
   27MMA    H0E  394   0.432   0.141   1.312  0.4285  0.6456  0.4765
   28MMA    H00  395   0.289  -0.354   1.141 -0.1594  2.0903  0.9023
   28MMA    C01  396   0.370  -0.312   1.082  0.0379 -0.0832 -0.4343
   28MMA    H02  397   0.458  -0.329   1.145  0.4088  2.7963 -0.0884
   28MMA    H03  398   0.380  -0.365   0.987  0.9446 -0.7317  0.0177
   28MMA    O04  399   0.339  -0.172   1.055  0.6303 -0.7016 -0.1203
   28MMA    C05  400   0.428  -0.107   0.976  0.2446 -0.1423  0.1437
   28MMA    O06  401   0.530  -0.165   0.940  0.1134  0.4936 -0.6646
   28MMA    C07  402   0.400   0.041   0.963 -0.1816 -0.3967 -0.6028
   28MMA    C08  403   0.409   0.090   0.829 -0.1447  0.4014 -0.1582
   28MMA    H09  404   0.395   0.196   0.835  0.3958  0.4172  1.0092
   28MMA    H0A  405   0.500   0.046   0.790 -1.8858 -0.6745 -3.1192
   28MMA    C0B  406   0.284   0.087   1.054  0.5019  0.0009  0.2562
   28MMA    H0C  407   0.189   0.039   1.032 -0.7218  1.8661  1.3092
   28MMA    H0D  408   0.312   0.051   1.153  1.4903 -1.9019 -0.7035
   28MMA    H0E  409   0.262   0.194   1.046 -1.3132 -0.5455 -2.7560
   29MMA    H00  410  -0.092   0.146   0.815  1.8916 -0.1325 -2.5531
   29MMA    C01  411  -0.060   0.042   0.824  0.1843 -0.4567  0.7680
   29MMA    H02  412  -0.057   0.027   0.932  0.6751  0.9182  0.9542
   29MMA    H03  413  -0.127  -0.019   0.763  0.3817  0.4421 -0.3762
   29MMA    O04  414   0.072   0.011   0.785 -0.0272 -0.5284  0.1840
   29MMA    C05  415   0.165   0.115   0.775 -0.2814  0.9988 -0.8949
   29MMA    O06  416   0.141   0.237   0.799  0.5494 -0.2786 -0.3012
   29MMA    C07  417   0.290   0.061   0.715 -0.3141 -0.6537 -0.7102
   29MMA    C08  418   0.316   0.131   0.594 -0.0284 -0.2005 -0.5298
   29MMA    H09  419   0.268   0.071   0.519 -0.2756 -1.5625  0.6882
   29MMA    H0A  420   0.279   0.232   0.586  0.1284 -0.2372 -1.8130
   29MMA    C0B  421   0.289  -0.092   0.703 -0.2533 -0.0655 -0.8480
   29MMA    H0C  422   0.390  -0.129   0.717 -0.4200  0.2037  1.2262
   29MMA    H0D  423   0.234  -0.129   0.790  0.1850  1.2848  0.0172
   29MMA    H0E  424   0.246  -0.140   0.615  0.7505 -0.4998 -1.1067
   30MMA    H00  425   0.545   0.421   0.817  1.6235  1.4334  0.5859
   30MMA    C01  426   0.486   0.458   0.733  0.2911  0.3161  1.0148
   30MMA    H02  427   0.510   0.553   0.688 -0.7232  0.7114  1.2879
   30MMA    H03  428   0.387   0.477   0.776  0.2868 -3.3560  2.9074
   30MMA    O04  429   0.465   0.366   0.625 -0.3040 -0.3971  0.3993
   30MMA    C05  430   0.532   0.257   0.618  0.4728  0.7439 -0.0590
   30MMA    O06  431   0.629   0.232   0.693  0.2187 -0.5298 -0.5304
   30MMA    C07  432   0.470   0.161   0.524  0.5117  0.6617  1.1086
   30MMA    C08  433   0.428   0.213   0.402 -0.1155 -0.3862 -0.3661
   30MMA    H09  434   0.377   0.137   0.345  3.4198 -1.8927 -1.6382
   30MMA    H0A  435   0.387   0.312   0.413 -0.1635 -0.5175  0.7698
   30MMA    C0B  436   0.527   0.016   0.517 -0.8375 -0.1233  0.0649
   30MMA    H0C  437   0.459  -0.048   0.460  2.6055 -1.1839 -3.0672
   30MMA    H0D  438   0.621   0.009   0.462 -2.0172  0.6023 -2.1149
   30MMA    H0E  439   0.545  -0.034   0.613 -0.7354  0.7540  0.5011
   31MMA    H00  440   0.737  -0.056   0.093  0.9337 -3.6870  2.2056
   31MMA    C01  441   0.782  -0.020   0.186  0.7203 -0.2734  1.0744
   31MMA    H02  442   0.757  -0.106   0.249 -0.9701  0.4579  1.4223
   31MMA    H03  443   0.889  -0.005   0.172  0.7320  0.3055  1.8055
   31MMA    O04  444   0.718   0.095   0.239 -0.1555  0.4083 -0.2733
   31MMA    C05  445   0.585   0.109   0.230  1.1122 -0.2328 -1.0638
   31MMA    O06  446   0.512   0.019   0.188 -0.0883 -0.5332  0.1573
   31MMA    C07  447   0.539   0.246   0.279  0.3107  0.8046 -0.6141
   31MMA    C08  448   0.454   0.309   0.192 -0.5090  0.2337  0.0887
   31MMA    H09  449   0.414   0.399   0.236  1.2128  0.4444  1.3153
   31MMA    H0A  450   0.380   0.241   0.153  0.5079 -1.0902  0.4155
   31MMA    C0B  451   0.652   0.319   0.357  0.2433  0.4389 -0.3251
   31MMA    H0C  452   0.695   0.247   0.427 -2.2945 -2.4238 -1.5619
   31MMA    H0D  453   0.737   0.353   0.299  0.4795  2.4672  1.1507
   31MMA    H0E  454   0.623   0.410   0.410  0.1981  0.4778 -0.4171
   32MMA    H00  455   0.189   0.672   0.065 -0.6027  0.5189 -0.1641
   32MMA    C01  456   0.199   0.574   0.019 -0.0603  0.6290 -0.2830
   32MMA    H02  457   0.113   0.513   0.047  1.2370 -0.4728  1.4167
   32MMA    H03  458   0.200   0.597  -0.087  1.2787 -0.1550 -0.4622
   32MMA    O04  459   0.325   0.520   0.052 -0.3888 -0.9939 -0.1266
   32MMA    C05  460   0.367   0.410  -0.002  0.0148  0.6177  0.4453
   32MMA    O06  461   0.295   0.340  -0.081  0.0098  0.0140  0.6566
   32MMA    C07  462   0.501   0.371   0.046 -0.1830 -0.2146  0.1088
   32MMA    C08  463   0.593   0.467   0.084 -0.5207 -0.4623 -0.0979
   32MMA    H09  464   0.551   0.551   0.137 -1.0870 -2.2838  2.4316
   32MMA    H0A  465   0.684   0.424   0.124 -0.4900 -1.9347 -1.6942
   32MMA    C0B  466   0.556   0.258  -0.025  0.5510 -0.1133 -0.4504
   32MMA    H0C  467   0.664   0.250  -0.015  0.6093  2.3156  1.0376
   32MMA    H0D  468   0.519   0.157  -0.007 -0.6523  0.3032 -0.5408
   32MMA    H0E  469   0.530   0.271  -0.130 -1.0544  0.4587  0.0088
   33MMA    H00  470   0.415   0.642  -0.346  0.8183 -1.1048 -1.8092
   33MMA    C01  471   0.408   0.549  -0.289 -0.2640  0.3750  0.5950
   33MMA    H02  472   0.308   0.552  -0.246  0.0099 -0.3665  1.3019
   33MMA    H03  473   0.413   0.466  -0.360  1.2937  1.8734 -1.1049
   33MMA    O04  474   0.516   0.525  -0.197  0.0468  0.0883  0.1165
   33MMA    C05  475   0.557   0.616  -0.103 -0.3879  0.2328 -0.1825
   33MMA    O06  476   0.503   0.727  -0.087  0.0764 -0.4410  0.2556
   33MMA    C07  477   0.671   0.556  -0.024  0.3530  0.2958 -0.2990
   33MMA    C08  478   0.759   0.494  -0.109  0.8436  0.4797  0.6712
   33MMA    H09  479   0.768   0.555  -0.197 -1.1581 -0.1306  0.0160
   33MMA    H0A  480   0.715   0.406  -0.153 -0.1725  1.0111  0.6148
   33MMA    C0B  481   0.728   0.670   0.065 -0.0962 -0.1576 -0.6032
   33MMA    H0C  482   0.657   0.736   0.114  0.3594  0.0108 -0.1626
   33MMA    H0D  483   0.804   0.633   0.135 -0.0137  1.0868 -0.0166
   33MMA    H0E  484   0.774   0.748   0.005 -1.8245  0.4887 -1.0896
   34MMA    H00  485   1.059   0.801  -0.320  1.5026  0.8743  0.8671
   34MMA    C01  486   1.047   0.788  -0.212 -0.1939 -0.1601  0.5707
   34MMA    H02  487   1.150   0.781  -0.175 -0.8925 -0.7191  2.4843
   34MMA    H03  488   0.997   0.877  -0.172  0.8818  1.8022 -2.2621
   34MMA    O04  489   0.969   0.669  -0.198 -0.3778  0.3803 -0.1763
   34MMA    C05  490   0.977   0.593  -0.075  0.2955  0.5990 -0.4189
   34MMA    O06  491   1.036   0.638   0.029  0.9120 -0.0223  0.6128
   34MMA    C07  492   0.916   0.459  -0.087 -0.1760 -0.1469 -0.5850
   34MMA    C08  493   0.952   0.386  -0.201  0.4960 -0.4568  0.3143
   34MMA    H09  494   0.893   0.296  -0.204  1.6941 -1.2003 -0.9483
   34MMA    H0A  495   0.942   0.453  -0.285 -0.5331 -2.7514 -1.4508
   34MMA    C0B  496   0.922   0.382   0.046 -0.5987  0.0352  0.0670
   34MMA    H0C  497   0.909   0.439   0.137  0.0244 -3.6481  2.5855
   34MMA    H0D  498   0.878   0.282   0.035 -1.9898  0.6687 -0.1881
   34MMA    H0E  499   1.028   0.366   0.066 -0.5228 -0.9032 -0.9762
   35MMA    H00  500   1.089   0.376  -0.616  0.2505  2.3655 -0.9911
   35MMA    C01  501   1.188   0.394  -0.573  0.1917  0.4880 -0.0168
   35MMA    H02  502   1.257   0.319  -0.613 -2.5067 -0.9595 -2.1149
   35MMA    H03  503   1.232   0.488  -0.606 -2.3404  1.4274 -0.7840
   35MMA    O04  504   1.178   0.395  -0.430  0.4220 -0.1152  0.1793
   35MMA    C05  505   1.092   0.309  -0.371 -0.1153  0.9116  0.3396
   35MMA    O06  506   1.016   0.232  -0.433  0.6566  0.0076  0.1287
   35MMA    C07  507   1.100   0.327  -0.229 -0.3399  0.3474  0.1449
   35MMA    C08  508   1.102   0.212  -0.158 -0.6305  0.3047  0.4730
   35MMA    H09  509   1.038   0.141  -0.208  0.1708 -1.1420  1.4477
   35MMA    H0A  510   1.094   0.227  -0.051  1.7661  0.5714  0.6543
   35MMA    C0B  511   1.190   0.437  -0.176  0.2478  0.0215 -0.9238
   35MMA    H0C  512   1.173   0.535  -0.219 -1.0698 -0.2843 -1.1203
   35MMA    H0D  513   1.201   0.447  -0.068  2.7245  1.0709 -1.2562
   35MMA    H0E  514   1.290   0.407  -0.206  0.7144 -1.5924  2.0370
   36MMA    H00  515   1.437   0.316  -0.412 -1.0786  0.0139  0.6139
   36MMA    C01  516   1.500   0.256  -0.347 -0.0338  0.0357 -0.3605
   36MMA    H02  517   1.542   0.176  -0.408 -1.2155 -0.2713 -0.7698
   36MMA    H03  518   1.587   0.317  -0.322  1.2094 -0.7532 -2.5961
   36MMA    O04  519   1.425   0.211  -0.235 -0.0392 -0.1547  0.3186
   36MMA    C05  520   1.324   0.122  -0.265 -0.3217  0.0318 -0.7834
   36MMA    O06  521   1.314   0.057  -0.366  0.3485  0.2344  0.1799
   36MMA    C07  522   1.234   0.108  -0.147 -0.2617  0.8841  0.1495
   36MMA    C08  523   1.168  -0.019  -0.137  0.5896 -1.0760 -0.0147
   36MMA    H09  524   1.130  -0.042  -0.236  1.6225  2.7624 -1.3885
   36MMA    H0A  525   1.094  -0.016  -0.059  1.5027  5.2383  0.8265
   36MMA    C0B  526   1.307   0.153  -0.018  0.4517 -0.2883  0.3316
   36MMA    H0C  527   1.408   0.113  -0.011  0.3508 -0.3140  1.7927
   36MMA    H0D  528   1.315   0.262  -0.014  2.6403 -0.4689  2.1921
   36MMA    H0E  529   1.255   0.128   0.074  0.8533  1.0925  0.9525
   37MMA    H00  530   1.674   0.001  -0.093  0.2705 -0.7737  1.4423
   37MMA    C01  531   1.606  -0.051  -0.160  0.6860 -0.1651  0.5347
   37MMA    H02  532   1.603  -0.005  -0.259  0.4299 -0.0323  0.6061
   37MMA    H03  533   1.656  -0.148  -0.170 -1.4562 -1.1265 -1.2896
   37MMA    O04  534   1.469  -0.070  -0.111  0.3867  0.6078  0.1355
   37MMA    C05  535   1.376  -0.148  -0.170 -0.5332 -0.0461  0.2052
   37MMA    O06  536   1.412  -0.228  -0.259 -0.5421  0.1311 -0.3258
   37MMA    C07  537   1.247  -0.158  -0.093  0.4703 -0.3303  0.0649
   37MMA    C08  538   1.170  -0.261  -0.148 -0.2521 -0.3266 -0.0824
   37MMA    H09  539   1.217  -0.345  -0.099  0.5241  0.1744  0.0469
   37MMA    H0A  540   1.187  -0.267  -0.255 -1.1524 -0.5054 -0.2211
   37MMA    C0B  541   1.266  -0.157   0.064  0.5068  0.1507  0.0765
   37MMA    H0C  542   1.366  -0.122   0.091  0.3690 -1.5193  2.9139
   37MMA    H0D  543   1.202  -0.085   0.115 -0.6200 -0.5454 -0.3399
   37MMA    H0E  544   1.259  -0.254   0.112 -1.8210  0.8321  1.1690
   38MMA    H00  545   0.892  -0.015  -0.399 -0.8503  0.8354  0.1975
   38MMA    C01  546   0.866  -0.120  -0.415  0.1754  0.6681 -0.4463
   38MMA    H02  547   0.759  -0.124  -0.392  0.6148 -1.1210  1.4008
   38MMA    H03  548   0.885  -0.156  -0.516 -0.1080 -0.2775 -0.1648
   38MMA    O04  549   0.938  -0.207  -0.327 -0.0904 -0.0758 -0.0936
   38MMA    C05  550   0.930  -0.197  -0.193  0.0363  0.7152  0.6862
   38MMA    O06  551   0.854  -0.115  -0.136 -0.3454  0.1317  0.6235
   38MMA    C07  552   1.010  -0.299  -0.117 -0.1491 -0.0580  0.4053
   38MMA    C08  553   1.012  -0.427  -0.169 -0.2598  0.0367 -0.3222
   38MMA    H09  554   1.018  -0.429  -0.277 -0.1392 -0.7075 -0.3045
   38MMA    H0A  555   1.078  -0.491  -0.111 -2.1317 -2.2985 -0.6520
   38MMA    C0B  556   0.989  -0.282   0.029  0.0096  0.2597  0.2673
   38MMA    H0C  557   0.886  -0.279   0.064  0.6032  0.5608  2.0491
   38MMA    H0D  558   1.014  -0.369   0.089 -0.2053 -1.3216 -1.9036
   38MMA    H0E  559   1.024  -0.183   0.062  2.3411  0.7017 -3.2329
   39MMA    H00  560   1.088  -0.791   0.135 -0.5819 -1.6368 -1.2575
   39MMA    C01  561   0.994  -0.737   0.134  0.3308  0.0131  0.5044
   39MMA    H02  562   0.907  -0.800   0.154  0.9023 -0.6794  0.8085
   39MMA    H03  563   0.999  -0.662   0.214 -2.7246 -0.4177  1.1828
   39MMA    O04  564   0.980  -0.681   0.001  0.3385  0.6948  0.0600
   39MMA    C05  565   0.892  -0.578  -0.018 -0.6769 -0.8551  0.3391
   39MMA    O06  566   0.828  -0.523   0.075 -0.2524  0.3209 -0.0875
   39MMA    C07  567   0.889  -0.529  -0.157  0.1701 -0.0492 -0.2269
   39MMA    C08  568   0.783  -0.458  -0.199 -0.3605 -0.2647  0.7912
   39MMA    H09  569   0.749  -0.379  -0.133 -0.8283  0.0292  0.2038
   39MMA    H0A  570   0.801  -0.429  -0.301 -0.9235 -0.5294  0.6167
   39MMA    C0B  571   0.936  -0.642  -0.253  0.5465 -0.9188  0.0186
   39MMA    H0C  572   1.043  -0.642  -0.272  0.2405  0.1271 -1.7979
   39MMA    H0D  573   0.913  -0.742  -0.215  1.2402 -1.3520 -0.6893
   39MMA    H0E  574   0.888  -0.639  -0.351  3.4355 -1.4048 -1.4483
   40MMA    H00  575   0.505  -0.139  -0.295  0.5225 -0.5119  0.9827
   40MMA    C01  576   0.434  -0.205  -0.245 -0.2489 -0.5517 -0.1439
   40MMA    H02  577   0.384  -0.146  -0.168  0.5073 -0.6764  0.4465
   40MMA    H03  578   0.360  -0.224  -0.323 -1.0245 -1.7029  0.8445
   40MMA    O04  579   0.508  -0.316  -0.202  0.5992  0.8819  0.2651
   40MMA    C05  580   0.572  -0.390  -0.289  0.2097  0.6169 -0.2076
   40MMA    O06  581   0.573  -0.356  -0.403 -0.5980  0.6836  0.1382
   40MMA    C07  582   0.629  -0.511  -0.226  0.2716 -0.1453 -0.0896
   40MMA    C08  583   0.641  -0.618  -0.316  0.6349 -1.1361 -0.4527
   40MMA    H09  584   0.684  -0.588  -0.411  0.5623  0.1480 -0.0945
   40MMA    H0A  585   0.677  -0.698  -0.254 -0.6101 -0.7567  0.7728
   40MMA    C0B  586   0.575  -0.546  -0.090  0.7150 -0.3869 -0.6422
   40MMA    H0C  587   0.622  -0.486  -0.012  1.2842 -1.7295  0.0653
   40MMA    H0D  588   0.466  -0.539  -0.098  0.7010  2.8764  1.8027
   40MMA    H0E  589   0.612  -0.645  -0.063 -0.5386 -0.6447  0.1608
   41MMA    H00  590   0.565  -1.027  -0.588 -0.0252 -0.4032  0.0479
   41MMA    C01  591   0.586  -1.055  -0.484 -0.4577 -0.1808  0.1962
   41MMA    H02  592   0.511  -1.133  -0.469 -0.8909  0.4120  1.1703
   41MMA    H03  593   0.684  -1.080  -0.446 -0.4956 -0.1768  0.2954
   41MMA    O04  594   0.550  -0.938  -0.409  0.3333 -0.0534 -0.3494
   41MMA    C05  595   0.596  -0.818  -0.443 -0.4090 -0.0550 -0.2434
   41MMA    O06  596   0.691  -0.816  -0.523 -1.2532 -0.8428  0.3579
   41MMA    C07  597   0.521  -0.709  -0.382 -0.1144 -0.2540  0.0337
   41MMA    C08  598   0.459  -0.627  -0.468  0.3300  0.0356 -0.4336
   41MMA    H09  599   0.522  -0.594  -0.550  1.5918  1.5773  1.1210
   41MMA    H0A  600   0.409  -0.552  -0.409 -1.5935  0.2409 -2.2663
   41MMA    C0B  601   0.441  -0.757  -0.258  0.4648 -0.0253 -0.2659
   41MMA    H0C  602   0.390  -0.851  -0.276  0.0094 -0.3371  2.5127
   41MMA    H0D  603   0.504  -0.789  -0.175 -1.8840  0.0411  1.5956
   41MMA    H0E  604   0.365  -0.686  -0.225  0.2855 -0.2186 -0.2611
   42MMA    H00  605   0.249  -0.298  -0.678 -1.3397  0.8414 -0.0630
   42MMA    C01  606   0.226  -0.324  -0.575  0.4265  0.0445  0.1453
   42MMA    H02  607   0.298  -0.280  -0.505  0.1934  0.5705  0.0560
   42MMA    H03  608   0.131  -0.285  -0.538 -0.1991 -2.2831  1.0551
   42MMA    O04  609   0.219  -0.462  -0.547  0.1033 -0.5541 -0.1405
   42MMA    C05  610   0.295  -0.546  -0.619 -0.2444 -0.6588  0.7327
   42MMA    O06  611   0.339  -0.506  -0.724  0.1175  0.9000 -0.2903
   42MMA    C07  612   0.332  -0.678  -0.562  0.1467  0.3306 -0.0150
   42MMA    C08  613   0.248  -0.742  -0.483 -0.1378 -0.2486  0.7237
   42MMA    H09  614   0.226  -0.670  -0.405 -0.1411 -0.0259  0.5168
   42MMA    H0A  615   0.285  -0.840  -0.457  0.5419  0.2416  1.6255
   42MMA    C0B  616   0.402  -0.765  -0.665  0.3165  0.1028  0.2234
   42MMA    H0C  617   0.503  -0.739  -0.697  1.1317 -3.3025 -0.1808
   42MMA    H0D  618   0.421  -0.869  -0.640  0.7221  0.2105  0.3583
   42MMA    H0E  619   0.360  -0.761  -0.766 -1.1616 -0.4657  0.8058
   43MMA    H00  620  -0.048  -0.772  -0.100  1.7219 -0.8637  1.6872
   43MMA    C01  621  -0.007  -0.847  -0.168 -0.3561 -0.1327 -0.4476
   43MMA    H02  622   0.085  -0.891  -0.130 -0.2162 -0.3137 -0.9970
   43MMA    H03  623  -0.091  -0.917  -0.172 -2.2381  2.0131  0.2362
   43MMA    O04  624   0.011  -0.793  -0.301  0.1053 -0.1369 -0.0658
   43MMA    C05  625   0.059  -0.866  -0.406 -0.0749 -0.1805 -0.4486
   43MMA    O06  626   0.066  -0.989  -0.394 -0.5832 -0.1243  0.0754
   43MMA    C07  627   0.096  -0.783  -0.524  0.5374 -0.4574  0.5058
   43MMA    C08  628   0.107  -0.853  -0.643 -0.2967  1.1431  0.2421
   43MMA    H09  629   0.157  -0.946  -0.620  0.3551  0.9905 -1.7458
   43MMA    H0A  630   0.129  -0.795  -0.731 -2.3647 -1.2743 -1.9692
   43MMA    C0B  631   0.018  -0.655  -0.518 -0.3927 -0.0152  1.1418
   43MMA    H0C  632  -0.089  -0.675  -0.515 -0.0299 -2.1224  0.7304
   43MMA    H0D  633   0.050  -0.590  -0.437  0.5440  2.4009 -1.0699
   43MMA    H0E  634   0.026  -0.610  -0.617  2.5861  1.1127  1.8294
   44MMA    H00  635  -0.282  -0.601  -0.745  0.6460 -0.8475  1.5295
   44MMA    C01  636  -0.328  -0.698  -0.764 -0.0506 -0.2284 -0.0986
   44MMA    H02  637  -0.423  -0.718  -0.714 -2.5882  1.3128 -4.0977
   44MMA    H03  638  -0.351  -0.704  -0.870  2.5923  0.2224 -0.7184
   44MMA    O04  639  -0.233  -0.793  -0.715 -0.2681  0.0508 -0.1757
   44MMA    C05  640  -0.098  -0.785  -0.757  1.0037  0.8522 -0.3956
   44MMA    O06  641  -0.059  -0.683  -0.816  0.6863  0.5087  0.1244
   44MMA    C07  642  -0.025  -0.908  -0.727 -0.3681  0.5041 -0.2654
   44MMA    C08  643  -0.002  -0.975  -0.846  0.2660  0.5354 -0.3408
   44MMA    H09  644  -0.084  -1.045  -0.854  0.4785  0.5014 -2.6261
   44MMA    H0A  645  -0.008  -0.905  -0.929  1.4101  1.4637  0.3475
   44MMA    C0B  646  -0.099  -0.988  -0.622 -0.0266 -0.1708  0.1549
   44MMA    H0C  647  -0.195  -1.022  -0.661 -0.3016  0.6650  0.0760
   44MMA    H0D  648  -0.043  -1.078  -0.599  1.4717  0.8129  0.4559
   44MMA    H0E  649  -0.132  -0.934  -0.533 -1.0291 -1.9863  0.9222
   45MMA    H00  650  -0.178  -1.115  -1.187 -0.4989 -0.2549 -0.4047
   45MMA    C01  651  -0.100  -1.189  -1.172  0.2853  0.7627  0.5949
   45MMA    H02  652  -0.147  -1.287  -1.178  3.0345 -0.4807 -2.3555
   45MMA    H03  653  -0.031  -1.188  -1.257 -1.6671  1.1799 -1.0089
   45MMA    O04  654  -0.034  -1.176  -1.050 -0.0785 -0.2786 -0.0891
   45MMA    C05  655   0.063  -1.090  -1.031 -0.9969  0.3083  0.0508
   45MMA    O06  656   0.099  -1.018  -1.126  0.2323  0.1518  0.1511
   45MMA    C07  657   0.112  -1.073  -0.894  0.1604 -0.0206 -0.6964
   45MMA    C08  658   0.105  -1.182  -0.811  0.7079 -0.0272 -0.1325
   45MMA    H09  659   0.007  -1.227  -0.809 -0.2454  1.9533 -1.3299
   45MMA    H0A  660   0.142  -1.153  -0.714  0.9799  2.0977 -0.8575
   45MMA    C0B  661   0.242  -0.986  -0.891 -0.5327  0.7475 -0.8972
   45MMA    H0C  662   0.209  -0.883  -0.906 -0.5616  0.5972 -1.8813
   45MMA    H0D  663   0.307  -0.994  -0.804 -1.2602 -0.7801 -0.4737
   45MMA    H0E  664   0.307  -1.005  -0.976  0.4807 -3.0109  0.5984
   46MMA    H00  665   0.136  -1.328  -0.397 -1.2971  1.2704  0.2475
   46MMA    C01  666   0.163  -1.410  -0.464 -0.3802  1.2739  0.5971
   46MMA    H02  667   0.249  -1.458  -0.417  0.3395  1.3557 -0.5981
   46MMA    H03  668   0.072  -1.470  -0.469  1.1654 -1.0209 -0.6692
   46MMA    O04  669   0.200  -1.352  -0.596 -0.3678  0.3086  0.1042
   46MMA    C05  670   0.134  -1.389  -0.709  0.5034 -0.5888  0.0387
   46MMA    O06  671   0.041  -1.469  -0.712  0.5309 -0.2530 -0.3724
   46MMA    C07  672   0.191  -1.319  -0.830  0.7031  0.0641  0.7328
   46MMA    C08  673   0.166  -1.360  -0.958  0.5184 -0.3605  0.1422
   46MMA    H09  674   0.222  -1.294  -1.023 -0.6388 -1.6004 -2.1228
   46MMA    H0A  675   0.060  -1.375  -0.970  0.1481  1.4079  0.9422
   46MMA    C0B  676   0.336  -1.280  -0.795 -0.2370 -0.2547 -0.4664
   46MMA    H0C  677   0.395  -1.364  -0.757 -0.0037 -1.3170 -3.0834
   46MMA    H0D  678   0.372  -1.239  -0.889 -0.7990  0.4598 -0.3741
   46MMA    H0E  679   0.348  -1.209  -0.714  1.1369 -1.3888  0.3598
   47MMA    H00  680   0.233  -1.246  -1.382  0.7005  0.5100  3.2205
   47MMA    C01  681   0.210  -1.350  -1.358 -0.4570  0.0093  0.1819
   47MMA    H02  682   0.106  -1.350  -1.391  0.3188 -0.1382 -2.3593
   47MMA    H03  683   0.269  -1.418  -1.419 -0.1122  1.6962 -1.4246
   47MMA    O04  684   0.234  -1.375  -1.222  0.1068  0.3878  0.0418
   47MMA    C05  685   0.167  -1.472  -1.155  0.0601  0.2881  0.4782
   47MMA    O06  686   0.075  -1.529  -1.209  0.2048 -0.3720 -0.1105
   47MMA    C07  687   0.218  -1.507  -1.024 -0.5171  0.2189 -0.1537
   47MMA    C08  688   0.356  -1.500  -1.007  0.8033 -0.1092 -0.6891
   47MMA    H09  689   0.395  -1.513  -0.907 -1.7840  0.2917  0.4117
   47MMA    H0A  690   0.402  -1.423  -1.066 -0.4109  0.7616 -0.5186
   47MMA    C0B  691   0.131  -1.611  -0.945 -0.1881  0.5344  1.1255
   47MMA    H0C  692   0.028  -1.583  -0.922 -0.9537 -2.3068  1.3924
   47MMA    H0D  693   0.114  -1.704  -1.000  0.4088  0.4762  1.0359
   47MMA    H0E  694   0.179  -1.662  -0.861 -0.5761 -0.4766  0.7463
   48MMA    H00  695   0.833  -1.432  -1.077 -0.6364 -2.4231  1.5047
   48MMA    C01  696   0.780  -1.474  -1.163 -0.4345  0.0868  0.1000
   48MMA    H02  697   0.799  -1.401  -1.241  0.5615 -3.1845 -2.8514
   48MMA    H03  698   0.825  -1.567  -1.198  0.8177  0.2929  1.1286
   48MMA    O04  699   0.645  -1.486  -1.147 -0.0980  0.0201 -0.2471
   48MMA    C05  700   0.590  -1.546  -1.038  0.4334  0.8063 -0.1610
   48MMA    O06  701   0.656  -1.552  -0.931 -0.1168 -0.1634  0.1680
   48MMA    C07  702   0.460  -1.617  -1.062  0.4876  0.0310 -0.0241
   48MMA    C08  703   0.436  -1.731  -0.985 -0.0544 -0.8189 -0.0669
   48MMA    H09  704   0.483  -1.725  -0.887  0.3813 -1.5286 -0.2263
   48MMA    H0A  705   0.333  -1.762  -0.987 -0.6991  0.9679  2.5158
   48MMA    C0B  706   0.425  -1.625  -1.219  0.1124  0.3624 -0.5955
   48MMA    H0C  707   0.490  -1.690  -1.278 -0.1314  0.9364 -1.5014
   48MMA    H0D  708   0.326  -1.670  -1.226 -0.8416  2.4457 -0.9875
   48MMA    H0E  709   0.410  -1.533  -1.276 -3.3445  1.2925  1.6564
   49MMA    H00  710   0.201  -1.897  -1.327 -0.3337  0.6151  0.3111
   49MMA    C01  711   0.212  -1.976  -1.253  0.5669  0.3533 -0.0970
   49MMA    H02  712   0.111  -1.997  -1.217 -0.0176 -0.2089 -2.0261
   49MMA    H03  713   0.262  -2.051  -1.314 -0.0669  1.0462 -1.4998
   49MMA    O04  714   0.292  -1.940  -1.140  0.2847 -0.1701 -0.5614
   49MMA    C05  715   0.423  -1.922  -1.155  0.1527 -0.1393 -0.5447
   49MMA    O06  716   0.479  -1.927  -1.263 -0.3524  0.1186  0.6583
   49MMA    C07  717   0.492  -1.877  -1.024 -0.0196  0.1010  0.0421
   49MMA    C08  718   0.472  -1.973  -0.922  0.0460 -0.5297 -0.1841
   49MMA    H09  719   0.548  -2.046  -0.944  0.6254  0.8178 -2.8382
   49MMA    H0A  720   0.372  -2.013  -0.936  0.3630 -2.0569  1.6285
   49MMA    C0B  721   0.642  -1.855  -1.050  0.3763  0.2012  0.4728
   49MMA    H0C  722   0.658  -1.819  -1.152 -1.5725  2.2816  0.8757
   49MMA    H0D  723   0.695  -1.774  -1.000  0.4329  0.8699 -0.6505
   49MMA    H0E  724   0.705  -1.943  -1.033 -0.8406 -0.3450  2.2982
   50MMA    H00  725   0.320  -1.637  -0.664 -0.5128 -1.2202  0.2835
   50MMA    C01  726   0.354  -1.690  -0.575  0.4741 -0.2478  0.4932
   50MMA    H02  727   0.403  -1.615  -0.513 -2.5224  1.3817  0.9980
   50MMA    H03  728   0.266  -1.724  -0.520 -0.8026  2.5367  0.2863
   50MMA    O04  729   0.442  -1.780  -0.633 -0.1039 -0.0178  0.3496
   50MMA    C05  730   0.388  -1.875  -0.717  0.0597 -0.1420 -0.2158
   50MMA    O06  731   0.266  -1.884  -0.732 -0.1485  0.0610  0.6282
   50MMA    C07  732   0.489  -1.969  -0.764  0.0625 -0.0972 -0.4296
   50MMA    C08  733   0.462  -2.099  -0.725  0.1608  0.2059 -0.1933
   50MMA    H09  734   0.358  -2.125  -0.740 -0.3458  2.6025 -1.0315
   50MMA    H0A  735   0.544  -2.161  -0.755  1.4578  2.1324 -0.7448
   50MMA    C0B  736   0.632  -1.916  -0.750  0.2824 -0.6181 -0.1939
   50MMA    H0C  737   0.708  -1.977  -0.800 -1.5970 -0.3124 -3.6331
   50MMA    H0D  738   0.642  -1.816  -0.792 -0.5106  0.0584  1.2094
   50MMA    H0E  739   0.665  -1.910  -0.647 -2.4253 -2.2031  0.8005
   51MMA    H00  740   0.793  -1.981  -0.422  0.0467 -1.1614 -0.1337
   51MMA    C01  741   0.712  -2.010  -0.355 -0.3782 -0.5590 -0.3780
   51MMA    H02  742   0.735  -2.089  -0.284  3.2191 -0.2974 -1.1733
   51MMA    H03  743   0.705  -1.920  -0.293  0.9626  0.1151 -1.1942
   51MMA    O04  744   0.592  -2.039  -0.426 -0.2730 -0.1023 -0.2328
   51MMA    C05  745   0.591  -2.125  -0.525  0.3286  0.4601 -0.5364
   51MMA    O06  746   0.688  -2.183  -0.569 -0.7027  0.0257  0.0261
   51MMA    C07  747   0.457  -2.155  -0.575 -0.5134 -0.2456  0.3539
   51MMA    C08  748   0.434  -2.294  -0.570 -0.3535 -0.2948  0.4655
   51MMA    H09  749   0.395  -2.311  -0.471  1.5150  0.1079  1.2834
   51MMA    H0A  750   0.527  -2.346  -0.586  0.0780 -0.1368  2.3702
   51MMA    C0B  751   0.348  -2.073  -0.500  0.2331  0.1794  0.1625
   51MMA    H0C  752   0.379  -1.970  -0.484  2.4114 -0.3040 -0.7947
   51MMA    H0D  753   0.244  -2.073  -0.534 -0.7968  0.4257  3.0970
   51MMA    H0E  754   0.340  -2.116  -0.400  1.1818 -4.0149 -1.4448
   52MMA    H00  755   0.429  -2.236  -1.047 -0.7548  1.4239 -2.0443
   52MMA    C01  756   0.342  -2.296  -1.022  0.3704  0.4582 -0.3524
   52MMA    H02  757   0.262  -2.240  -1.071  0.0672  1.1615  0.9292
   52MMA    H03  758   0.367  -2.389  -1.074 -1.0470  0.7871 -1.6594
   52MMA    O04  759   0.298  -2.320  -0.889 -0.4779  0.3184 -0.6347
   52MMA    C05  760   0.393  -2.370  -0.803  0.8104  0.9018  0.0578
   52MMA    O06  761   0.505  -2.403  -0.841  0.1862 -0.0295 -0.1551
   52MMA    C07  762   0.342  -2.383  -0.664 -0.1823 -0.7219 -0.6357
   52MMA    C08  763   0.333  -2.511  -0.620 -0.1806  0.5897 -0.7471
   52MMA    H09  764   0.337  -2.570  -0.710 -0.2283 -1.4205  0.5399
   52MMA    H0A  765   0.245  -2.534  -0.562 -0.7172  2.6027 -0.7232
   52MMA    C0B  766   0.201  -2.319  -0.637  0.1186  0.0581  0.9905
   52MMA    H0C  767   0.195  -2.224  -0.691  0.3195 -0.0186  0.8369
   52MMA    H0D  768   0.115  -2.376  -0.672  2.1061 -2.9806  0.8931
   52MMA    H0E  769   0.191  -2.291  -0.532  2.7156 -0.9352  1.5401
   53MMA    H00  770   0.570  -2.334  -0.283  0.7709  0.4589  0.8641
   53MMA    C01  771   0.622  -2.430  -0.284  0.4639  0.3007  0.0118
   53MMA    H02  772   0.730  -2.425  -0.289  0.3631  1.3344 -1.9359
   53MMA    H03  773   0.591  -2.476  -0.191 -0.8288  0.7434 -0.1802
   53MMA    O04  774   0.588  -2.526  -0.380 -0.3626 -0.0260 -0.6907
   53MMA    C05  775   0.466  -2.542  -0.418 -0.2926 -0.3221 -0.4762
   53MMA    O06  776   0.380  -2.536  -0.332  0.4486  0.4117  0.0430
   53MMA    C07  777   0.440  -2.606  -0.550 -0.5905 -0.2223  0.2019
   53MMA    C08  778   0.367  -2.721  -0.539  0.3809 -0.3764  0.4439
   53MMA    H09  779   0.289  -2.707  -0.464 -0.8478  0.8720 -1.0197
   53MMA    H0A  780   0.325  -2.754  -0.633  2.2159 -2.6667  0.3998
   53MMA    C0B  781   0.557  -2.616  -0.646 -0.3313 -0.0850  0.3501
   53MMA    H0C  782   0.611  -2.522  -0.654 -0.0716 -0.3602 -1.2351
   53MMA    H0D  783   0.636  -2.671  -0.596 -0.3752 -1.2446 -0.8291
   53MMA    H0E  784   0.536  -2.633  -0.752  1.7219  1.5668 -0.3509
   54MMA    H00  785   0.080  -3.066  -0.441 -0.8558  1.4018 -2.9697
   54MMA    C01  786   0.083  -2.964  -0.402 -0.7993  0.3262 -0.0085
   54MMA    H02  787   0.028  -2.906  -0.477 -1.8264  0.7076  1.0366
   54MMA    H03  788   0.027  -2.964  -0.309 -0.1662  3.2056  0.4302
   54MMA    O04  789   0.213  -2.907  -0.399 -0.2639 -0.7817  0.7596
   54MMA    C05  790   0.299  -2.944  -0.496 -0.2415 -0.2502 -0.1917
   54MMA    O06  791   0.270  -3.015  -0.594  0.1427  0.1647 -0.0281
   54MMA    C07  792   0.425  -2.869  -0.489  0.6940 -0.1456  0.3672
   54MMA    C08  793   0.478  -2.846  -0.363  0.3755 -1.0683 -0.4180
   54MMA    H09  794   0.406  -2.794  -0.301  1.8857  0.7009 -0.1117
   54MMA    H0A  795   0.574  -2.801  -0.379  0.5296 -0.4627  2.0756
   54MMA    C0B  796   0.527  -2.913  -0.599 -0.2374 -0.1886 -0.8863
   54MMA    H0C  797   0.632  -2.897  -0.576 -0.5173  3.4972 -1.9749
   54MMA    H0D  798   0.513  -3.017  -0.630  1.6112 -0.5741 -0.4884
   54MMA    H0E  799   0.519  -2.861  -0.694  0.9403  1.3009 -0.1905
   55MMA    H00  800   0.175  -3.173  -0.217  0.1745  1.5643  0.3367
   55MMA    C01  801   0.272  -3.222  -0.203 -0.7215 -0.6475 -0.9992
   55MMA    H02  802   0.274  -3.232  -0.095 -1.4849 -0.4570 -0.9623
   55MMA    H03  803   0.264  -3.320  -0.251 -0.7442 -0.2990 -1.7175
   55MMA    O04  804   0.372  -3.141  -0.262 -0.4422  0.2998 -0.6839
   55MMA    C05  805   0.387  -3.018  -0.217  0.1998 -0.5649 -0.2229
   55MMA    O06  806   0.302  -2.965  -0.140  0.5029 -0.2819  0.2520
   55MMA    C07  807   0.516  -2.963  -0.256 -0.0149 -0.2404  0.1793
   55MMA    C08  808   0.570  -2.886  -0.156  0.5372  0.1304  0.0622
   55MMA    H09  809   0.499  -2.824  -0.105 -0.4259 -0.9998  0.1160
   55MMA    H0A  810   0.663  -2.842  -0.189  1.4361 -3.0360 -1.9156
   55MMA    C0B  811   0.604  -3.060  -0.338 -0.1681  0.5117 -0.1011
   55MMA    H0C  812   0.690  -3.007  -0.377  0.6883  0.9044  2.2123
   55MMA    H0D  813   0.634  -3.145  -0.277  1.9372  0.8419 -0.6551
   55MMA    H0E  814   0.544  -3.099  -0.420 -0.2496  1.1823 -0.3676
   56MMA    H00  815   0.962  -2.634  -0.028  0.6251 -3.5284 -0.5594
   56MMA    C01  816   0.855  -2.641  -0.010  0.4813 -0.0848  0.2317
   56MMA    H02  817   0.846  -2.584   0.083 -1.4981 -1.1341  0.7159
   56MMA    H03  818   0.811  -2.587  -0.094  1.3959 -1.3399 -1.0678
   56MMA    O04  819   0.806  -2.767  -0.029 -0.3711 -0.2253  0.0285
   56MMA    C05  820   0.691  -2.810   0.031 -0.4954  0.3283 -0.3381
   56MMA    O06  821   0.633  -2.748   0.121  0.5518 -0.0609 -0.0883
   56MMA    C07  822   0.646  -2.945  -0.027 -0.1573  0.4212 -0.1070
   56MMA    C08  823   0.544  -3.013   0.027  0.4191 -0.1196 -0.3123
   56MMA    H09  824   0.530  -3.099  -0.037 -0.8616  0.8016 -1.2984
   56MMA    H0A  825   0.458  -2.952   0.050 -1.0329 -1.7219 -1.3389
   56MMA    C0B  826   0.765  -3.031  -0.077  0.2957  0.7759 -0.4796
   56MMA    H0C  827   0.847  -3.048  -0.007 -0.6860  0.0729  0.5026
   56MMA    H0D  828   0.742  -3.136  -0.094 -0.5121  0.5821  1.7399
   56MMA    H0E  829   0.820  -2.993  -0.164  1.7549 -0.8116 -0.2800
   57MMA    H00  830   0.140  -3.154   0.086 -0.7880 -1.1550 -1.1797
   57MMA    C01  831   0.201  -3.190   0.169 -0.1233 -0.0979 -1.1979
   57MMA    H02  832   0.147  -3.176   0.263  0.4507  1.2095 -1.0613
   57MMA    H03  833   0.197  -3.299   0.166  2.3930 -0.2961  0.7730
   57MMA    O04  834   0.321  -3.127   0.191 -0.0436  0.3331 -0.0347
   57MMA    C05  835   0.429  -3.181   0.144 -0.2116  0.4375 -1.1499
   57MMA    O06  836   0.439  -3.296   0.094 -0.6789  0.3648  0.2075
   57MMA    C07  837   0.552  -3.099   0.175  0.7520 -0.4072 -0.5279
   57MMA    C08  838   0.672  -3.167   0.171  0.0238  0.4026  0.2600
   57MMA    H09  839   0.669  -3.234   0.087  0.5674  0.7767 -0.0647
   57MMA    H0A  840   0.754  -3.097   0.184 -0.0658  0.8981 -1.6819
   57MMA    C0B  841   0.528  -2.987   0.283  0.3588  0.2413  0.2708
   57MMA    H0C  842   0.448  -2.920   0.252 -0.0002 -0.6923 -0.8786
   57MMA    H0D  843   0.491  -3.021   0.379 -0.6881  1.3548  0.2696
   57MMA    H0E  844   0.611  -2.917   0.296 -0.3026  0.8044  1.4793
   58MMA    H00  845   1.083  -3.400   0.261 -2.0270  1.1730 -1.4673
   58MMA    C01  846   1.082  -3.311   0.324  0.4753  0.0821  0.1927
   58MMA    H02  847   1.140  -3.319   0.416  0.9142 -0.5441 -0.1356
   58MMA    H03  848   1.131  -3.237   0.260 -0.7279  1.2617  0.6297
   58MMA    O04  849   0.947  -3.292   0.354 -0.2684  0.4219 -0.5211
   58MMA    C05  850   0.861  -3.292   0.246 -0.6326  0.4753 -0.2792
   58MMA    O06  851   0.896  -3.326   0.129  0.3819  0.1056 -0.1681
   58MMA    C07  852   0.720  -3.268   0.289  0.3477 -0.0039  0.6069
   58MMA    C08  853   0.640  -3.375   0.278 -0.0700  0.4512 -0.1205
   58MMA    H09  854   0.632  -3.417   0.178 -1.1174 -2.3305  1.0771
   58MMA    H0A  855   0.544  -3.356   0.325 -0.4756 -0.2217 -0.6651
   58MMA    C0B  856   0.706  -3.185   0.412  0.1421  0.3971  0.1583
   58MMA    H0C  857   0.786  -3.214   0.481  1.0463 -0.2265 -1.1185
   58MMA    H0D  858   0.724  -3.081   0.387 -0.9985  0.2053 -1.4736
   58MMA    H0E  859   0.613  -3.203   0.465 -0.4797 -0.6186 -1.2502
   59MMA    H00  860   0.462  -3.843   0.114 -1.3872 -0.5312  1.3432
   59MMA    C01  861   0.448  -3.761   0.185  0.2850  0.3725  0.6678
   59MMA    H02  862   0.372  -3.699   0.137 -1.0600 -0.1323  2.0757
   59MMA    H03  863   0.390  -3.808   0.265  2.4333  2.1484  3.3121
   59MMA    O04  864   0.562  -3.688   0.222 -0.0208  0.6014  0.0336
   59MMA    C05  865   0.547  -3.589   0.316  0.5046  0.3001  0.0394
   59MMA    O06  866   0.439  -3.565   0.358  0.3217 -0.7021  0.4862
   59MMA    C07  867   0.673  -3.519   0.352 -0.7145 -0.5423 -0.6847
   59MMA    C08  868   0.690  -3.476   0.481 -0.0340 -0.2675 -0.1994
   59MMA    H09  869   0.783  -3.423   0.495  0.5278 -1.7673  2.0526
   59MMA    H0A  870   0.605  -3.421   0.517 -0.8699  0.3194 -2.9431
   59MMA    C0B  871   0.789  -3.584   0.267 -0.1779  0.2218  0.3105
   59MMA    H0C  872   0.890  -3.547   0.287 -0.8064  0.8315  2.5090
   59MMA    H0D  873   0.789  -3.693   0.279 -2.0896  0.2313  0.4836
   59MMA    H0E  874   0.765  -3.584   0.161 -1.2725 -1.2673  0.5474
   60EH     H00  875   0.594  -3.714   0.713  2.6476 -0.0384  0.2771
   60EH     C01  876   0.592  -3.665   0.616 -0.4905  0.7304  0.6464
   60EH     H02  877   0.596  -3.741   0.538 -0.9250  0.0893  1.2442
   60EH     H03  878   0.498  -3.613   0.599  0.7129  3.3987  1.8978
   60EH     C04  879   0.724  -3.576   0.605  0.1725 -0.0746 -0.0551
   60EH     C05  880   0.842  -3.639   0.576  0.1100 -0.3778 -0.1054
   60EH     H06  881   0.928  -3.574   0.585  0.5503 -1.0922  1.0818
   60EH     H07  882   0.835  -3.691   0.482  1.5328 -1.2973  0.2624
   60EH     C08  883   0.739  -3.467   0.709  0.9924 -0.5011  0.0759
   60EH     O09  884   0.846  -3.417   0.745 -0.0785 -0.1485 -0.1070
   60EH     O0A  885   0.619  -3.433   0.761 -0.0382  0.0951 -0.1554
   60EH     C0B  886   0.612  -3.344   0.873 -0.2686  0.4051  0.5921
   60EH     H0C  887   0.669  -3.255   0.846 -0.0998  0.1955  0.2570
   60EH     H0D  888   0.643  -3.387   0.968  2.4801 -1.4686 -1.0983
   60EH     C0E  889   0.463  -3.297   0.890 -0.8388 -0.1508 -0.3237
   60EH     H0F  890   0.409  -3.387   0.917 -1.4702  1.2416  3.2153
   60EH     C0G  891   0.452  -3.203   1.020  0.2045  0.4391 -0.2874
   60EH     H0H  892   0.370  -3.132   1.023  0.6713  0.9408  0.6318
   60EH     H0I  893   0.530  -3.128   1.011  0.6456 -0.0074 -0.2074
   60EH     C0J  894   0.448  -3.279   1.158  0.1536  0.0242  0.0158
   60EH     H0K  895   0.350  -3.325   1.167  0.0048 -0.2914 -2.7929
   60EH     H0M  896   0.517  -3.362   1.173  0.3602 -0.1688 -1.8240
   60EH     H0N  897   0.452  -3.206   1.239 -0.9185 -0.3271  0.3856
   60EH     C0O  898   0.393  -3.251   0.766  0.2423  0.0687 -0.1798
   60EH     H0P  899   0.406  -3.312   0.676 -0.9418  0.5236 -0.6723
   60EH     H0Q  900   0.285  -3.247   0.784  0.0843 -0.8473 -0.8395
   60EH     C0R  901   0.433  -3.109   0.729 -0.0141  0.0166  0.4296
   60EH     H0S  902   0.536  -3.114   0.693 -0.0613 -1.5175  0.4538
   60EH     H0T  903   0.448  -3.047   0.817 -0.2000 -0.1612  0.5883
   60EH     C0U  904   0.344  -3.045   0.628  0.7009  0.4948  0.1044
   60EH     H0V  905   0.407  -2.969   0.582  1.6048 -0.3194 -0.0263
   60EH     H0W  906   0.315  -3.125   0.560  0.5019 -0.2429  1.0475
   60EH     C0X  907   0.212  -2.997   0.691  0.2329 -0.1114 -0.4298
   60EH     H0Y  908   0.154  -2.942   0.617 -0.6772  0.3725  0.6412
   60EH     H0Z  909   0.225  -2.929   0.775  0.9797 -0.2201 -0.4516
   60EH     H10  910   0.155  -3.081   0.729 -1.1656  1.4141  0.9334
   61ST     H00  911   0.988  -3.646   0.845 -1.1209  2.4425  0.1063
   61ST     C01  912   0.907  -3.714   0.819  0.5004  0.7577 -0.7058
   61ST     H02  913   0.810  -3.671   0.844 -0.7780 -1.1570 -2.2591
   61ST     H03  914   0.916  -3.795   0.891 -0.3739  2.5116  1.4812
   61ST     C04  915   0.905  -3.759   0.671 -0.0499  0.4120 -0.3358
   61ST     C05  916   1.029  -3.774   0.608  0.6499  0.5823 -0.4874
   61ST     H06  917   1.077  -3.677   0.611 -1.8854  1.8964 -0.4374
   61ST     H07  918   1.022  -3.827   0.514 -0.4150  1.2463 -0.7964
   61ST     C08  919   0.815  -3.873   0.653  0.1592  0.1874 -0.4231
   61ST     O09  920   0.809  -3.936   0.549  0.6063 -0.2984  0.4562
   61ST     O0A  921   0.749  -3.912   0.765  0.0140 -0.2112 -0.1355
   61ST     C0B  922   0.680  -4.030   0.768  0.1235 -0.0162 -0.0275
   61ST     H0C  923   0.586  -4.009   0.718  0.3495 -1.4764 -1.0697
   61ST     H0D  924   0.726  -4.109   0.709  2.6408  0.5328  1.1038
   61ST     C0E  925   0.662  -4.096   0.906  0.3133 -0.5234  0.8359
   61ST     H0F  926   0.627  -4.021   0.977  0.4442  1.0334 -0.7038
   61ST     H0G  927   0.763  -4.113   0.945  0.3842 -1.4483  0.2553
   61ST     C0H  928   0.579  -4.223   0.899 -0.1916  0.6086 -0.9485
   61ST     H0I  929   0.624  -4.285   0.976 -1.7408  1.3115  0.5427
   61ST     H0J  930   0.599  -4.275   0.805 -0.0799  0.1700 -0.6853
   61ST     C0K  931   0.422  -4.217   0.929 -0.2716  0.1257  0.4231
   61ST     H0M  932   0.378  -4.147   0.858  0.7000  2.1373  1.7375
   61ST     H0N  933   0.367  -4.307   0.904 -0.2376  0.0623  0.5755
   61ST     C0O  934   0.380  -4.165   1.067 -1.2598  0.5358  0.4566
   61ST     H0P  935   0.285  -4.112   1.072  0.2264  3.2181  0.9794
   61ST     H0Q  936   0.446  -4.081   1.087  0.1726 -0.1879 -1.1227
   61ST     C0R  937   0.376  -4.264   1.180 -0.0409 -0.0089  0.5718
   61ST     H0S  938   0.377  -4.207   1.273 -0.3900  1.2102 -0.1628
   61ST     H0T  939   0.466  -4.324   1.191 -0.5936 -0.3466  3.8529
   61ST     C0U  940   0.251  -4.352   1.180  0.1379  0.5917  0.2730
   61ST     H0V  941   0.267  -4.417   1.094  1.4156  1.4246 -0.1272
   61ST     H0W  942   0.164  -4.289   1.162  1.5843  3.0613  1.6208
   61ST     C0X  943   0.229  -4.422   1.314 -0.1821 -0.1449  0.2163
   61ST     H0Y  944   0.331  -4.436   1.350  0.3380  0.4536 -0.9953
   61ST     H0Z  945   0.167  -4.359   1.377  0.6630 -0.4734  1.3989
   61ST     C10  946   0.156  -4.558   1.295 -0.1532  0.3618  0.1351
   61ST     H11  947   0.049  -4.545   1.311 -0.4488 -0.8558 -0.7721
   61ST     H12  948   0.168  -4.586   1.190  1.3596  0.5916  0.2290
   61ST     C13  949   0.206  -4.674   1.387  0.0687 -0.3608  0.3215
   61ST     H14  950   0.313  -4.690   1.378  0.1393  0.7707 -0.9708
   61ST     H15  951   0.190  -4.645   1.490  2.6495  0.7020  0.4365
   61ST     C16  952   0.130  -4.807   1.362  0.1317  0.2380  0.7861
   61ST     H17  953   0.023  -4.796   1.377 -0.2515  0.0010 -1.6219
   61ST     H18  954   0.138  -4.821   1.255  3.6685 -1.0571  1.1436
   61ST     C19  955   0.166  -4.930   1.451  0.0652  0.6571 -0.0138
   61ST     H1A  956   0.265  -4.963   1.417  0.1754  1.6363 -0.6639
   61ST     H1B  957   0.185  -4.902   1.554  0.2466  0.0875  0.1096
   61ST     C1C  958   0.056  -5.045   1.440 -0.1464  0.3455 -0.2188
   61ST     H1D  959   0.101  -5.137   1.478  0.0443 -1.0467 -3.6516
   61ST     H1E  960  -0.019  -5.017   1.514 -1.2763  1.7380 -1.8560
   61ST     C1F  961  -0.005  -5.071   1.302 -0.3197  0.0449  0.0307
   61ST     H1G  962  -0.052  -4.982   1.260 -1.3530 -0.6241 -0.2659
   61ST     H1H  963   0.070  -5.097   1.228 -0.6236  0.4930 -0.4393
   61ST     C1I  964  -0.104  -5.177   1.310 -0.1858 -0.1015  0.1313
   61ST     H1J  965  -0.175  -5.144   1.386 -1.6045 -1.4916 -0.5795
   61ST     H1K  966  -0.065  -5.275   1.336 -0.7263 -1.1125 -2.6652
   61ST     C1M  967  -0.181  -5.203   1.178  0.3009  0.1217  0.3277
   61ST     H1N  968  -0.119  -5.259   1.108  1.8372  0.3269  1.5121
   61ST     H1O  969  -0.203  -5.108   1.129 -0.5765 -0.0553  0.3668
   61ST     C1P  970  -0.313  -5.281   1.184 -0.0164  0.4334  0.3188
   61ST     H1Q  971  -0.367  -5.259   1.276 -1.9259 -0.7574 -0.4640
   61ST     H1R  972  -0.367  -5.234   1.101 -1.9618 -2.7488 -0.3261
   61ST     C1S  973  -0.311  -5.441   1.186  0.2572 -0.2688  0.1734
   61ST     H1T  974  -0.337  -5.478   1.285 -1.1790  1.4473  0.4695
   61ST     H1U  975  -0.217  -5.484   1.151 -0.1999 -0.2321 -1.1392
   61ST     H1V  976  -0.394  -5.480   1.126  2.0050 -0.7655 -1.9940
   62ST     H00  977   1.296  -3.785   0.812  0.3096  0.1775 -0.5839
   62ST     C01  978   1.190  -3.767   0.796  0.1208 -0.8298 -0.5140
   62ST     H02  979   1.150  -3.788   0.895 -0.4687  1.2533 -0.2803
   62ST     H03  980   1.202  -3.660   0.782  1.4625 -0.4885  2.6725
   62ST     C04  981   1.152  -3.858   0.679 -0.3226  0.2940  0.4364
   62ST     C05  982   1.094  -3.980   0.706 -0.7167 -0.5276  0.0045
   62ST     H06  983   1.019  -3.969   0.782 -0.0768  0.0327  0.5685
   62ST     H07  984   1.074  -4.032   0.614 -0.8711 -0.9650  0.2858
   62ST     C08  985   1.252  -3.854   0.568  0.2962 -0.0209 -0.1147
   62ST     O09  986   1.257  -3.938   0.481  0.2429  0.4110  0.2845
   62ST     O0A  987   1.330  -3.741   0.568  0.0947 -0.4377 -0.3939
   62ST     C0B  988   1.426  -3.716   0.461  0.0415  0.0780  0.0708
   62ST     H0C  989   1.495  -3.800   0.451  0.4591  0.4432 -0.1094
   62ST     H0D  990   1.374  -3.718   0.365  0.0900  0.8618  0.0253
   62ST     C0E  991   1.507  -3.585   0.483 -0.0374 -0.0886 -0.5797
   62ST     H0F  992   1.584  -3.590   0.407 -0.0301 -0.4835 -0.5447
   62ST     H0G  993   1.572  -3.599   0.569 -0.7983  0.1029  0.0392
   62ST     C0H  994   1.435  -3.455   0.493  0.3100  0.5700  0.2913
   62ST     H0I  995   1.371  -3.438   0.407  0.9910  1.7599  0.0035
   62ST     H0J  996   1.508  -3.374   0.484  0.8120  0.1952  0.9533
   62ST     C0K  997   1.353  -3.437   0.623 -0.5648  0.3573  0.5910
   62ST     H0M  998   1.256  -3.486   0.622 -2.0504  3.1133  2.2068
   62ST     H0N  999   1.405  -3.483   0.706 -0.8983  0.6945  0.9935
   62ST     C0O 1000   1.323  -3.287   0.647 -0.1561  0.1198 -0.1014
   62ST     H0P 1001   1.310  -3.231   0.555 -2.6614  0.1666  0.2489
   62ST     H0Q 1002   1.411  -3.241   0.691 -0.6404  1.1536 -0.2049
   62ST     C0R 1003   1.204  -3.272   0.742 -0.0616  0.4031 -0.2777
   62ST     H0S 1004   1.117  -3.318   0.696  0.7593 -0.2178 -1.2313
   62ST     H0T 1005   1.185  -3.166   0.758  1.5323  0.5380  0.9153
   62ST     C0U 1006   1.226  -3.321   0.893 -0.1537 -0.5203  0.4627
   62ST     H0V 1007   1.314  -3.265   0.923 -0.0430 -0.4702  0.0411
   62ST     H0W 1008   1.253  -3.426   0.902  0.1229 -0.1774  4.5718
   62ST     C0X 1009   1.106  -3.306   0.990  0.0485  0.4652 -0.4183
   62ST     H0Y 1010   1.062  -3.208   0.970  1.7578  1.0984 -1.1280
   62ST     H0Z 1011   1.019  -3.368   0.968 -0.3238 -0.0517  2.3452
   62ST     C10 1012   1.151  -3.312   1.144 -0.5203 -0.7058  0.1116
   62ST     H11 1013   1.172  -3.416   1.171  0.6219 -0.9730 -1.6961
   62ST     H12 1014   1.237  -3.247   1.153  0.0228 -1.6835  2.2214
   62ST     C13 1015   1.046  -3.278   1.245 -0.0165  0.5321  0.7725
   62ST     H14 1016   1.008  -3.182   1.210  0.4075  0.1066 -0.8818
   62ST     H15 1017   0.974  -3.359   1.232  0.6557 -0.0561  0.6506
   62ST     C16 1018   1.092  -3.279   1.394 -0.2289  0.2151  0.5885
   62ST     H17 1019   1.146  -3.366   1.429 -0.4679 -0.4335 -0.6274
   62ST     H18 1020   1.159  -3.193   1.391  0.2864 -0.1976  0.2072
   62ST     C19 1021   0.968  -3.242   1.490 -0.0887 -0.3685 -0.0522
   62ST     H1A 1022   1.003  -3.222   1.591 -1.4296 -0.1258  0.3835
   62ST     H1B 1023   0.922  -3.152   1.450  0.2779  0.0157  0.3851
   62ST     C1C 1024   0.864  -3.358   1.491  0.6388  0.2779 -0.5152
   62ST     H1D 1025   0.792  -3.346   1.410  1.1039 -3.4628 -1.5559
   62ST     H1E 1026   0.903  -3.457   1.467 -1.3775 -0.3946 -1.0964
   62ST     C1F 1027   0.792  -3.371   1.622 -0.4707  0.0608  0.1500
   62ST     H1G 1028   0.722  -3.288   1.633  0.0751  0.7487 -1.4285
   62ST     H1H 1029   0.726  -3.456   1.611 -1.5970  1.0180 -0.6460
   62ST     C1I 1030   0.890  -3.402   1.748 -0.0931 -0.7356  1.0211
   62ST     H1J 1031   0.946  -3.310   1.768 -1.0949  0.6234 -2.0817
   62ST     H1K 1032   0.972  -3.468   1.723  0.3228 -0.0960  0.6868
   62ST     C1M 1033   0.828  -3.426   1.881 -0.0155  0.6694 -0.0958
   62ST     H1N 1034   0.803  -3.532   1.876  2.9077 -0.0245 -1.2310
   62ST     H1O 1035   0.739  -3.367   1.902 -1.8242 -0.9418 -2.9572
   62ST     C1P 1036   0.924  -3.407   2.005  0.9709 -0.6963 -0.2821
   62ST     H1Q 1037   0.919  -3.302   2.032 -0.9785 -0.2581 -2.3055
   62ST     H1R 1038   0.891  -3.454   2.098  0.2772  0.6118  0.1361
   62ST     C1S 1039   1.067  -3.477   1.992  0.1040  0.7275  0.2606
   62ST     H1T 1040   1.120  -3.420   1.916  1.7148 -1.2087 -0.1017
   62ST     H1U 1041   1.054  -3.580   1.960 -4.3238  0.8638  1.2251
   62ST     H1V 1042   1.122  -3.483   2.085 -1.7559  0.1178  1.3503
   63ST     H00 1043   1.373  -4.029   0.683  1.3223 -0.7157 -1.5409
   63ST     C01 1044   1.308  -4.115   0.700  0.0981  0.4352 -0.2599
   63ST     H02 1045   1.283  -4.149   0.599  0.8694 -0.1682 -0.2552
   63ST     H03 1046   1.373  -4.194   0.738 -0.3899  0.3267  0.3442
   63ST     C04 1047   1.177  -4.101   0.781 -0.9769 -0.4865  0.3506
   63ST     C05 1048   1.078  -4.201   0.775 -0.1358 -0.2689 -0.0836
   63ST     H06 1049   0.982  -4.166   0.811  1.3250  2.9797  0.8573
   63ST     H07 1050   1.082  -4.241   0.675  0.3937 -2.5684  0.8118
   63ST     C08 1051   1.201  -4.049   0.915 -0.1774  0.1010  0.1891
   63ST     O09 1052   1.125  -3.991   0.990 -0.5806  0.4010 -0.2782
   63ST     O0A 1053   1.326  -4.076   0.946 -0.0826 -0.7126  0.5241
   63ST     C0B 1054   1.375  -4.071   1.078  0.2312 -0.8565 -0.6621
   63ST     H0C 1055   1.323  -4.141   1.144  0.8638  0.5255  1.3559
   63ST     H0D 1056   1.363  -3.973   1.125 -1.2701 -0.9048 -0.9007
   63ST     C0E 1057   1.527  -4.097   1.060 -0.2985  0.3627  0.3012
   63ST     H0F 1058   1.577  -4.137   1.148  0.9329  1.7052  0.2421
   63ST     H0G 1059   1.533  -4.187   0.999 -2.8930 -0.4712  1.2210
   63ST     C0H 1060   1.593  -3.978   0.996  0.1230 -0.1547  0.4337
   63ST     H0I 1061   1.523  -3.931   0.927  0.2560 -2.1652 -1.1349
   63ST     H0J 1062   1.663  -4.028   0.929  1.0546  1.4349  0.2112
   63ST     C0K 1063   1.643  -3.877   1.101 -0.0862  0.0625  0.0080
   63ST     H0M 1064   1.582  -3.855   1.188 -0.7959 -4.3601  0.7816
   63ST     H0N 1065   1.736  -3.918   1.141 -0.0675 -0.2895 -0.3809
   63ST     C0O 1066   1.684  -3.739   1.042 -0.5004 -0.0772  0.2879
   63ST     H0P 1067   1.761  -3.756   0.968 -2.2377 -0.4761 -1.4835
   63ST     H0Q 1068   1.737  -3.679   1.116  0.5997 -0.5928 -0.0724
   63ST     C0R 1069   1.573  -3.660   0.965 -0.1475  0.2309  0.3904
   63ST     H0S 1070   1.565  -3.705   0.866  0.4658 -0.6777  0.7519
   63ST     H0T 1071   1.595  -3.555   0.945  4.0001 -0.5027  0.5871
   63ST     C0U 1072   1.441  -3.652   1.040  0.3430 -0.0992 -0.3329
   63ST     H0V 1073   1.405  -3.752   1.062  2.4356 -0.6939  0.5247
   63ST     H0W 1074   1.366  -3.602   0.978  0.5235  2.3005  1.3093
   63ST     C0X 1075   1.439  -3.572   1.175  0.5402  0.1512 -0.1357
   63ST     H0Y 1076   1.536  -3.560   1.223  0.0448 -0.1864  0.9635
   63ST     H0Z 1077   1.399  -3.472   1.156 -2.9207 -0.7406  1.9500
   63ST     C10 1078   1.336  -3.638   1.276  0.0863 -0.1885  0.1617
   63ST     H11 1079   1.235  -3.631   1.235  1.7935 -1.8064 -4.6255
   63ST     H12 1080   1.371  -3.740   1.288 -1.0154 -0.5884  0.0184
   63ST     C13 1081   1.346  -3.572   1.416 -0.0182  0.1718 -0.8147
   63ST     H14 1082   1.442  -3.601   1.458  0.3043 -0.5292 -1.9932
   63ST     H15 1083   1.347  -3.463   1.416  2.4028  0.1776  0.9834
   63ST     C16 1084   1.237  -3.619   1.521 -0.3443  0.6736 -0.0570
   63ST     H17 1085   1.142  -3.581   1.481  1.3465  4.5729 -0.5854
   63ST     H18 1086   1.237  -3.728   1.521  1.0825  0.6655 -0.2059
   63ST     C19 1087   1.261  -3.565   1.665 -0.0741 -0.4137 -0.4084
   63ST     H1A 1088   1.256  -3.456   1.666  0.0905 -0.3855  2.2821
   63ST     H1B 1089   1.182  -3.606   1.729  1.3043 -1.3050  0.7579
   63ST     C1C 1090   1.401  -3.602   1.732  0.3875  0.1329 -0.6423
   63ST     H1D 1091   1.423  -3.707   1.713 -0.0871 -0.4288  1.7175
   63ST     H1E 1092   1.480  -3.538   1.694  0.0194  0.5143 -0.7702
   63ST     C1F 1093   1.394  -3.572   1.881 -0.5469 -0.1169 -0.3190
   63ST     H1G 1094   1.370  -3.468   1.902  1.1461 -0.1107  1.8100
   63ST     H1H 1095   1.303  -3.621   1.914 -0.7946  0.3122 -0.3667
   63ST     C1I 1096   1.525  -3.610   1.957 -0.4889  0.3141 -0.2097
   63ST     H1J 1097   1.618  -3.571   1.913  0.2704  0.3085  1.3530
   63ST     H1K 1098   1.540  -3.717   1.945 -0.8822  0.3463 -0.9852
   63ST     C1M 1099   1.531  -3.561   2.102 -0.1951 -0.0529  0.7086
   63ST     H1N 1100   1.457  -3.625   2.150 -0.3176 -1.4985 -1.2879
   63ST     H1O 1101   1.507  -3.456   2.117  0.8374  0.6191 -2.0674
   63ST     C1P 1102   1.654  -3.608   2.180  0.3237  0.5335  0.0106
   63ST     H1Q 1103   1.634  -3.589   2.285  1.6789  0.3429  0.3141
   63ST     H1R 1104   1.663  -3.717   2.172  1.3826  0.4546  1.8947
   63ST     C1S 1105   1.782  -3.540   2.119 -0.0963 -0.6369  0.4611
   63ST     H1T 1106   1.825  -3.580   2.028  0.6793  2.4915 -0.5903
   63ST     H1U 1107   1.856  -3.527   2.197 -1.0619 -0.9615  1.4565
   63ST     H1V 1108   1.764  -3.435   2.097 -1.6044 -0.9758 -0.0054
   64ST     H00 1109   1.002  -4.373   1.060  1.5027 -2.5233 -2.6551
   64ST     C01 1110   1.055  -4.292   1.011 -0.8032  0.1362 -0.8801
   64ST     H02 1111   0.983  -4.209   1.007 -0.4686  0.3906 -1.8428
   64ST     H03 1112   1.130  -4.257   1.082 -1.4614  0.3898 -0.3033
   64ST     C04 1113   1.087  -4.336   0.871 -0.0714 -0.1097  0.0289
   64ST     C05 1114   1.211  -4.380   0.843  0.4451 -0.4248 -0.5627
   64ST     H06 1115   1.286  -4.320   0.892  0.2194 -0.9360  0.4075
   64ST     H07 1116   1.219  -4.410   0.739 -0.6003  1.7312 -1.2952
   64ST     C08 1117   0.975  -4.406   0.809 -0.0365  0.6013  0.0268
   64ST     O09 1118   0.869  -4.421   0.861  0.4296 -0.3351  0.8336
   64ST     O0A 1119   0.996  -4.444   0.678 -0.1042 -0.4400 -0.0930
   64ST     C0B 1120   0.905  -4.530   0.607 -0.7448 -0.1457  0.1130
   64ST     H0C 1121   0.827  -4.567   0.675 -0.7758  3.3583  2.0878
   64ST     H0D 1122   0.963  -4.616   0.573 -0.9293  0.9370 -3.1456
   64ST     C0E 1123   0.850  -4.442   0.492 -0.2512 -0.4176 -0.5833
   64ST     H0F 1124   0.799  -4.507   0.421 -1.7420 -0.1817  0.2526
   64ST     H0G 1125   0.936  -4.398   0.442  1.5138 -2.3100  0.6529
   64ST     C0H 1126   0.750  -4.332   0.535  0.0383 -0.4543  0.1287
   64ST     H0I 1127   0.817  -4.254   0.571  0.1390  0.0844 -1.1825
   64ST     H0J 1128   0.675  -4.358   0.609 -0.4445 -0.9754 -0.5381
   64ST     C0K 1129   0.668  -4.280   0.418  0.1123  0.2961  0.1757
   64ST     H0M 1130   0.736  -4.241   0.343 -0.2034  1.2040  0.3569
   64ST     H0N 1131   0.623  -4.366   0.369 -0.5504  0.2065  0.9338
   64ST     C0O 1132   0.556  -4.176   0.455 -0.0599 -0.6674 -0.1307
   64ST     H0P 1133   0.597  -4.081   0.488  0.4551 -0.6841 -0.7177
   64ST     H0Q 1134   0.513  -4.223   0.544 -0.8073  1.9519  0.9303
   64ST     C0R 1135   0.453  -4.139   0.354 -0.3868  0.3683  0.1762
   64ST     H0S 1136   0.492  -4.102   0.260 -0.2617 -0.8636 -0.2601
   64ST     H0T 1137   0.398  -4.053   0.390 -1.1655  0.3551 -0.9721
   64ST     C0U 1138   0.358  -4.256   0.318 -0.0587 -0.7421 -0.1177
   64ST     H0V 1139   0.421  -4.322   0.258 -0.4547 -0.2399 -1.0914
   64ST     H0W 1140   0.282  -4.206   0.257 -0.1339 -1.0238 -0.2536
   64ST     C0X 1141   0.301  -4.341   0.436 -0.0789  0.4640 -0.2141
   64ST     H0Y 1142   0.376  -4.387   0.500 -0.3020 -0.7116 -0.7985
   64ST     H0Z 1143   0.240  -4.281   0.503 -0.9680 -1.7289  0.9657
   64ST     C10 1144   0.203  -4.446   0.385  0.4025 -0.0622  0.0799
   64ST     H11 1145   0.118  -4.399   0.336 -0.1449  0.8846  1.8693
   64ST     H12 1146   0.253  -4.500   0.306  0.0799  2.1166 -1.6624
   64ST     C13 1147   0.165  -4.543   0.494  0.4814  0.3494 -0.7536
   64ST     H14 1148   0.250  -4.599   0.532  0.3880 -0.3827 -1.6047
   64ST     H15 1149   0.135  -4.483   0.580 -2.4262 -1.0307 -0.7255
   64ST     C16 1150   0.055  -4.642   0.456 -0.1382 -0.2288 -0.5622
   64ST     H17 1151   0.019  -4.704   0.538 -0.7138  0.6837 -0.1069
   64ST     H18 1152  -0.029  -4.577   0.429 -0.4475 -0.8038 -0.9986
   64ST     C19 1153   0.070  -4.732   0.332 -0.1126 -0.4298  0.2673
   64ST     H1A 1154   0.063  -4.676   0.238  1.4241  1.6271  1.3324
   64ST     H1B 1155   0.173  -4.768   0.331 -0.7715 -2.3589 -0.7246
   64ST     C1C 1156  -0.027  -4.850   0.340 -0.3674  0.1089  0.7888
   64ST     H1D 1157   0.023  -4.915   0.412 -0.4977 -1.3435 -0.4195
   64ST     H1E 1158  -0.128  -4.815   0.362 -0.6796 -1.7171  2.4166
   64ST     C1F 1159  -0.023  -4.942   0.215 -0.2201 -0.2221  0.3390
   64ST     H1G 1160  -0.107  -5.009   0.226 -0.2470 -0.0493  1.2244
   64ST     H1H 1161  -0.046  -4.888   0.122 -1.8308 -1.2877  0.1154
   64ST     C1I 1162   0.110  -5.015   0.176  0.4087  0.4139  0.2149
   64ST     H1J 1163   0.138  -5.088   0.252 -1.9649  0.5788  1.3068
   64ST     H1K 1164   0.186  -4.937   0.177 -1.1401  1.9563 -0.0197
   64ST     C1M 1165   0.121  -5.075   0.032  0.1007  0.0646 -0.3723
   64ST     H1N 1166   0.221  -5.110   0.008 -0.3413 -2.3568  1.1146
   64ST     H1O 1167   0.101  -4.997  -0.042 -1.8328  0.2161  0.2888
   64ST     C1P 1168   0.036  -5.197  -0.004  0.9736 -0.4829  0.2983
   64ST     H1Q 1169  -0.064  -5.164  -0.033  0.8453 -1.0847  0.0456
   64ST     H1R 1170   0.066  -5.241  -0.099  2.5996 -0.5118  0.8083
   64ST     C1S 1171   0.016  -5.307   0.103  0.6451  0.0284 -0.4412
   64ST     H1T 1172  -0.015  -5.243   0.186 -0.3218 -0.2715 -0.5700
   64ST     H1U 1173   0.115  -5.352   0.114  0.6798 -0.5925 -2.9410
   64ST     H1V 1174  -0.065  -5.380   0.094 -1.0314  1.7376  0.4619
   65LA     H00 1175   1.133  -4.612   0.791  3.4608 -1.1544 -1.8559
   65LA     C01 1176   1.162  -4.625   0.895  0.3124 -0.2992 -0.8193
   65LA     H02 1177   1.198  -4.728   0.905 -0.1507 -0.2831  1.2140
   65LA     H03 1178   1.073  -4.611   0.957 -1.3765  1.3492 -3.5112
   65LA     C04 1179   1.272  -4.515   0.922 -0.5222 -0.6784  0.3446
   65LA     C05 1180   1.302  -4.481   1.051  0.5649 -0.1675  0.1221
   65LA     H06 1181   1.206  -4.463   1.098 -0.9640 -0.9466 -2.6236
   65LA     H07 1182   1.378  -4.403   1.047 -0.1650  0.4761 -1.7133
   65LA     C08 1183   1.388  -4.525   0.829  0.3955  1.5215 -0.4855
   65LA     O09 1184   1.496  -4.463   0.842 -0.7529  0.0905  1.1412
   65LA     O0A 1185   1.361  -4.608   0.724  0.1245 -0.0653 -0.4733
   65LA     C0B 1186   1.444  -4.604   0.612  0.1879 -0.0067  0.0699
   65LA     H0C 1187   1.548  -4.619   0.641  0.2852  0.1780 -0.1897
   65LA     H0D 1188   1.434  -4.506   0.567  0.1778 -0.0415 -0.0034
   65LA     C0E 1189   1.404  -4.708   0.506 -0.1084 -0.7459  0.3634
   65LA     H0F 1190   1.310  -4.675   0.462 -0.6461 -0.3165  1.8158
   65LA     H0G 1191   1.480  -4.700   0.428  0.1185 -0.2630  0.6326
   65LA     C0H 1192   1.395  -4.851   0.559  0.0672  0.2823  0.0633
   65LA     H0I 1193   1.491  -4.902   0.552  0.0304  0.1038  0.7589
   65LA     H0J 1194   1.382  -4.843   0.667  1.0683  0.0091  0.2110
   65LA     C0K 1195   1.286  -4.937   0.477 -0.5745  0.5741  0.1251
   65LA     H0M 1196   1.309  -4.931   0.370 -0.4454 -1.9434 -0.0231
   65LA     H0N 1197   1.305  -5.040   0.507 -1.0465  0.8224  1.2768
   65LA     C0O 1198   1.145  -4.894   0.505  1.1568  0.0614  0.1756
   65LA     H0P 1199   1.131  -4.888   0.613 -2.9668  0.8785 -0.2893
   65LA     H0Q 1200   1.114  -4.796   0.469 -0.8671 -1.4417 -2.3105
   65LA     C0R 1201   1.026  -4.986   0.441 -0.1295  0.0943  0.9138
   65LA     H0S 1202   0.933  -4.928   0.439 -0.1479  0.0113 -1.7248
   65LA     H0T 1203   1.045  -4.983   0.334 -0.1811 -2.5691  0.8074
   65LA     C0U 1204   1.020  -5.128   0.497 -0.3204 -0.5002  0.8935
   65LA     H0V 1205   0.963  -5.190   0.428  0.8321 -0.5693 -0.0038
   65LA     H0W 1206   1.120  -5.165   0.520  0.7444  0.9425 -1.2255
   65LA     C0X 1207   0.951  -5.123   0.625 -0.3731  0.5400  0.6469
   65LA     H0Y 1208   1.004  -5.047   0.683  0.0585  2.7230 -2.4627
   65LA     H0Z 1209   0.849  -5.090   0.606 -0.4368 -0.5333 -0.9248
   65LA     C10 1210   0.921  -5.268   0.684 -0.4569  0.0420  0.1170
   65LA     H11 1211   1.016  -5.318   0.705  1.1551  1.7168 -2.8352
   65LA     H12 1212   0.865  -5.332   0.615 -0.7591 -2.6636  2.7750
   65LA     C13 1213   0.841  -5.263   0.812  0.6726 -0.2716 -0.2563
   65LA     H14 1214   0.758  -5.193   0.808  0.9143  0.2786  3.2668
   65LA     H15 1215   0.903  -5.225   0.893 -0.9626  1.8691  0.0220
   65LA     C16 1216   0.775  -5.395   0.858  0.9695 -0.5765 -0.9646
   65LA     H17 1217   0.691  -5.420   0.794  0.2529  0.1757 -0.3228
   65LA     H18 1218   0.732  -5.374   0.956 -0.2019  0.5311 -1.6896
   65LA     C19 1219   0.869  -5.512   0.878  0.1954  0.0333  0.3866
   65LA     H1A 1220   0.895  -5.552   0.780  0.4360  1.3206 -0.0810
   65LA     H1B 1221   0.818  -5.580   0.946  0.5103  1.0494  1.6554
   65LA     H1C 1222   0.959  -5.475   0.927  0.4253  1.2014 -0.9023
   66EH     H00 1223   1.446  -4.723   1.034 -0.2866 -0.4287  0.2031
   66EH     C01 1224   1.478  -4.652   1.109 -0.1711 -0.5743  0.2922
   66EH     H02 1225   1.551  -4.581   1.069  0.2518 -0.5162  1.1415
   66EH     H03 1226   1.524  -4.717   1.183  4.7276  0.5820 -1.5031
   66EH     C04 1227   1.357  -4.582   1.164 -0.7242 -0.5256  0.3561
   66EH     C05 1228   1.374  -4.491   1.266  0.7126 -0.3429 -0.6171
   66EH     H06 1229   1.275  -4.461   1.299  0.1259 -1.7451 -1.0687
   66EH     H07 1230   1.448  -4.419   1.235 -0.3047  1.6870  1.4998
   66EH     C08 1231   1.241  -4.675   1.176 -0.6068  0.9085  0.6123
   66EH     O09 1232   1.131  -4.642   1.216  0.2905 -0.1702 -0.1364
   66EH     O0A 1233   1.268  -4.807   1.161 -0.2466 -0.2977  0.6683
   66EH     C0B 1234   1.168  -4.905   1.182 -0.8933  0.1607  0.3669
   66EH     H0C 1235   1.090  -4.891   1.106 -0.4871  1.1968  0.1379
   66EH     H0D 1236   1.131  -4.891   1.284 -0.5136  0.2575  0.4895
   66EH     C0E 1237   1.244  -5.034   1.158 -0.0623 -0.3390 -0.3366
   66EH     H0F 1238   1.162  -5.106   1.170 -0.1781 -0.0136  0.8956
   66EH     C0G 1239   1.304  -5.045   1.015 -0.3476  0.0378  1.0918
   66EH     H0H 1240   1.351  -5.143   1.002  0.3139  0.1288  2.6829
   66EH     H0I 1241   1.380  -4.973   0.987  0.9502 -1.7442 -0.1201
   66EH     C0J 1242   1.198  -5.050   0.907 -0.1315 -0.6289  0.3178
   66EH     H0K 1243   1.122  -5.128   0.915 -0.8900  0.1633  0.9541
   66EH     H0M 1244   1.255  -5.050   0.814  0.2920 -4.3553  0.5074
   66EH     H0N 1245   1.138  -4.959   0.907  0.4113 -0.2502 -1.6783
   66EH     C0O 1246   1.351  -5.056   1.273  0.0033 -0.2436 -0.3882
   66EH     H0P 1247   1.418  -4.970   1.283 -1.3251  0.5548  2.0661
   66EH     H0Q 1248   1.300  -5.054   1.369  0.8940 -0.7905  0.1048
   66EH     C0R 1249   1.448  -5.178   1.271 -0.3288  0.7470 -0.4269
   66EH     H0S 1250   1.526  -5.165   1.346  0.9345 -0.8537 -1.4319
   66EH     H0T 1251   1.498  -5.164   1.176 -0.5545 -0.5055 -0.7468
   66EH     C0U 1252   1.377  -5.319   1.267  0.4061 -0.2043  0.3018
   66EH     H0V 1253   1.323  -5.322   1.362 -1.0012 -0.4061 -0.4926
   66EH     H0W 1254   1.305  -5.334   1.187  4.2074 -0.7791 -3.1645
   66EH     C0X 1255   1.480  -5.424   1.251 -1.2561 -0.2969 -0.4627
   66EH     H0Y 1256   1.552  -5.408   1.332 -1.3418  1.2036 -0.6604
   66EH     H0Z 1257   1.530  -5.399   1.157  1.4352 -3.1703  0.1399
   66EH     H10 1258   1.432  -5.521   1.243  1.1068 -1.5139  0.0086
   67LA     H00 1259   1.239  -4.613   1.453  0.1913 -1.6811 -2.3550
   67LA     C01 1260   1.344  -4.642   1.456  0.6087 -0.1106 -0.8935
   67LA     H02 1261   1.370  -4.683   1.554 -1.3851  0.5929 -0.0422
   67LA     H03 1262   1.360  -4.718   1.380  0.3517 -1.1025  0.0249
   67LA     C04 1263   1.429  -4.525   1.415 -0.1288 -0.4781  0.0317
   67LA     C05 1264   1.401  -4.401   1.475  0.3674  0.5485  0.2686
   67LA     H06 1265   1.460  -4.320   1.435 -0.6554  0.3499 -1.7226
   67LA     H07 1266   1.294  -4.388   1.488  0.1507 -2.4575  1.9948
   67LA     C08 1267   1.571  -4.552   1.385  0.1168  0.0573 -0.3218
   67LA     O09 1268   1.654  -4.475   1.329  0.5555  0.0203 -0.7184
   67LA     O0A 1269   1.597  -4.675   1.407 -0.9132  0.3456  0.2408
   67LA     C0B 1270   1.733  -4.730   1.387  0.6557  0.2018  0.2713
   67LA     H0C 1271   1.797  -4.653   1.431  3.6524 -2.3900  0.5350
   67LA     H0D 1272   1.747  -4.726   1.279 -3.4505  0.0825 -0.3596
   67LA     C0E 1273   1.737  -4.871   1.451 -0.7369  1.0594 -0.2488
   67LA     H0F 1274   1.674  -4.941   1.397  1.0576  0.5654 -1.7663
   67LA     H0G 1275   1.838  -4.911   1.442 -0.7852  0.6946  0.7146
   67LA     C0H 1276   1.695  -4.881   1.600 -0.4470 -0.4090 -0.1375
   67LA     H0I 1277   1.782  -4.867   1.664  0.7495 -0.7258 -1.6389
   67LA     H0J 1278   1.634  -4.796   1.629 -0.8740 -1.0137  0.7323
   67LA     C0K 1279   1.631  -5.017   1.642  0.3482  0.2072  0.4464
   67LA     H0M 1280   1.527  -5.003   1.612  0.5293  0.5965 -0.0137
   67LA     H0N 1281   1.676  -5.103   1.591  0.3543 -0.3706  1.4188
   67LA     C0O 1282   1.614  -5.038   1.788  0.0942  0.1292  0.1191
   67LA     H0P 1283   1.548  -5.123   1.805  0.1361  0.4015  1.7705
   67LA     H0Q 1284   1.714  -5.057   1.826  0.7154  0.0395 -1.5272
   67LA     C0R 1285   1.552  -4.923   1.872 -0.3781  0.3075 -1.0212
   67LA     H0S 1286   1.578  -4.822   1.840  1.1194  0.9475  2.0453
   67LA     H0T 1287   1.445  -4.913   1.852 -0.7915  1.6984  1.6743
   67LA     C0U 1288   1.560  -4.941   2.026 -0.1066  0.3876  0.4892
   67LA     H0V 1289   1.512  -4.854   2.071  2.1360  1.5918  0.6242
   67LA     H0W 1290   1.507  -5.035   2.043  1.0216 -0.1043  1.2938
   67LA     C0X 1291   1.700  -4.976   2.083  0.1361  0.4845 -0.0653
   67LA     H0Y 1292   1.747  -5.064   2.038  1.8310  0.6108  1.4311
   67LA     H0Z 1293   1.765  -4.892   2.062 -1.4246  1.1791 -2.3392
   67LA     C10 1294   1.682  -5.018   2.234 -0.4930 -0.1211  0.1702
   67LA     H11 1295   1.626  -5.109   2.260 -1.5416  0.4980  0.1064
   67LA     H12 1296   1.617  -4.942   2.276 -1.5523 -1.3052  0.7191
   67LA     C13 1297   1.814  -5.015   2.319 -0.1795  0.7837 -0.4038
   67LA     H14 1298   1.772  -5.015   2.420 -2.2167  0.4945 -1.2201
   67LA     H15 1299   1.854  -4.915   2.304  1.6516 -0.0049 -0.8763
   67LA     C16 1300   1.909  -5.135   2.300 -0.3534 -0.5759 -0.6762
   67LA     H17 1301   1.947  -5.129   2.198  2.3001 -1.3062  0.2169
   67LA     H18 1302   1.859  -5.231   2.309  1.4678 -1.4753  0.2286
   67LA     C19 1303   2.019  -5.139   2.411 -0.0104 -0.2852 -0.2633
   67LA     H1A 1304   2.064  -5.236   2.391  0.5939 -0.2722  0.9798
   67LA     H1B 1305   1.978  -5.151   2.511 -0.9976  0.8099 -0.5292
   67LA     H1C 1306   2.096  -5.062   2.400 -2.3419  1.8390 -2.2058
   68ST     H00 1307   1.252  -4.491   1.661 -0.2409 -2.3316 -0.3018
   68ST     C01 1308   1.348  -4.472   1.710 -0.8940 -0.0826  0.1977
   68ST     H02 1309   1.325  -4.419   1.802  2.6393 -0.6244  1.4725
   68ST     H03 1310   1.399  -4.559   1.751  1.3672 -0.8881 -3.9794
   68ST     C04 1311   1.443  -4.375   1.633  0.1770 -0.0753 -0.0500
   68ST     C05 1312   1.579  -4.404   1.634 -0.0654 -0.0679 -0.2098
   68ST     H06 1313   1.633  -4.347   1.560 -1.3069  1.6134  0.1367
   68ST     H07 1314   1.592  -4.511   1.634 -1.2750 -0.2483 -2.5811
   68ST     C08 1315   1.394  -4.236   1.649 -0.2475 -0.0430  0.3802
   68ST     O09 1316   1.289  -4.216   1.706 -0.1949  0.1908  0.1612
   68ST     O0A 1317   1.459  -4.145   1.574  0.0695  0.0037 -0.0678
   68ST     C0B 1318   1.407  -4.015   1.575  0.6374 -0.6214 -0.0963
   68ST     H0C 1319   1.314  -4.026   1.520  0.0322  1.5526  0.4531
   68ST     H0D 1320   1.394  -3.981   1.677 -1.6779  2.1306 -1.2291
   68ST     C0E 1321   1.507  -3.923   1.498 -0.6176 -0.4490  0.0442
   68ST     H0F 1322   1.462  -3.827   1.473  2.8707  0.9676 -1.0937
   68ST     H0G 1323   1.533  -3.974   1.405  1.9798 -1.1915  1.1184
   68ST     C0H 1324   1.637  -3.897   1.569  0.6472 -0.4065  0.2063
   68ST     H0I 1325   1.605  -3.839   1.656 -0.0335 -0.3808 -0.0586
   68ST     H0J 1326   1.671  -3.994   1.607  2.8231 -0.5332 -1.9964
   68ST     C0K 1327   1.751  -3.843   1.489 -0.2266 -0.0260 -0.0771
   68ST     H0M 1328   1.847  -3.835   1.541  0.0290  2.3752 -0.8652
   68ST     H0N 1329   1.763  -3.908   1.403 -1.1315 -0.0698 -0.1725
   68ST     C0O 1330   1.719  -3.706   1.431 -0.5131 -0.1820  0.2347
   68ST     H0P 1331   1.788  -3.700   1.347 -0.3721 -0.6661  0.3153
   68ST     H0Q 1332   1.620  -3.700   1.384 -0.5636 -1.6016  0.1482
   68ST     C0R 1333   1.736  -3.586   1.525  0.0107 -0.3442  0.3702
   68ST     H0S 1334   1.823  -3.586   1.590  0.8195  0.0154 -0.6901
   68ST     H0T 1335   1.651  -3.590   1.593 -3.4995  0.8952 -3.6373
   68ST     C0U 1336   1.701  -3.462   1.450 -0.9747  0.1640  0.5908
   68ST     H0V 1337   1.594  -3.454   1.434 -1.1043  0.1871  1.4722
   68ST     H0W 1338   1.740  -3.474   1.349 -3.2614  0.1201 -0.2986
   68ST     C0X 1339   1.768  -3.344   1.521  0.1337 -0.0006 -0.5756
   68ST     H0Y 1340   1.872  -3.358   1.549  0.8548 -1.9607 -3.9257
   68ST     H0Z 1341   1.769  -3.254   1.459  2.2697  1.7086  1.8382
   68ST     C10 1342   1.686  -3.303   1.646 -1.6541 -0.2702 -0.0893
   68ST     H11 1343   1.666  -3.390   1.710  0.9889 -0.7083  0.2015
   68ST     H12 1344   1.753  -3.249   1.713 -1.7072  0.4202 -0.5876
   68ST     C13 1345   1.557  -3.221   1.628 -0.1951  0.0849  0.3454
   68ST     H14 1346   1.559  -3.124   1.577  2.7714  0.5064  1.1454
   68ST     H15 1347   1.485  -3.291   1.587  0.1257  1.3557 -2.5225
   68ST     C16 1348   1.504  -3.194   1.767  0.1587 -0.1209  0.4318
   68ST     H17 1349   1.504  -3.292   1.814 -0.6670 -0.2938  0.0777
   68ST     H18 1350   1.577  -3.127   1.812  1.0404 -0.7061 -0.1028
   68ST     C19 1351   1.365  -3.130   1.768 -0.0504  0.4200 -0.1829
   68ST     H1A 1352   1.362  -3.040   1.708 -0.1768  1.6925  1.7023
   68ST     H1B 1353   1.299  -3.206   1.727  1.8622 -1.5925  0.3141
   68ST     C1C 1354   1.321  -3.110   1.912 -0.1637 -0.6041 -0.6976
   68ST     H1D 1355   1.374  -3.028   1.962 -0.7979 -0.4388 -0.2897
   68ST     H1E 1356   1.353  -3.195   1.972 -0.4117 -1.0536 -1.2010
   68ST     C1F 1357   1.176  -3.086   1.930 -0.6834  0.2470  0.0312
   68ST     H1G 1358   1.116  -3.147   1.862  0.0565 -0.1341 -0.2840
   68ST     H1H 1359   1.155  -3.113   2.034 -0.7501 -0.8264 -0.2521
   68ST     C1I 1360   1.137  -2.935   1.908 -0.8225  0.2338 -0.0606
   68ST     H1J 1361   1.227  -2.875   1.904 -0.8071  0.0741 -2.2988
   68ST     H1K 1362   1.097  -2.910   1.810 -1.8864  1.8300  0.7608
   68ST     C1M 1363   1.024  -2.884   1.997 -0.7875 -0.7751 -0.4104
   68ST     H1N 1364   1.035  -2.921   2.099  0.9352  1.3858  0.2313
   68ST     H1O 1365   0.933  -2.930   1.960 -0.7497  0.5118 -2.1886
   68ST     C1P 1366   1.005  -2.732   2.011 -0.2407 -0.1661  0.4308
   68ST     H1Q 1367   1.094  -2.679   2.046 -0.7347  1.1027 -0.1924
   68ST     H1R 1368   0.990  -2.677   1.918  1.8813 -0.0064  0.1463
   68ST     C1S 1369   0.900  -2.695   2.120  0.1141  0.2221 -0.0797
   68ST     H1T 1370   0.920  -2.741   2.216 -2.0310 -1.7125 -0.5176
   68ST     H1U 1371   0.803  -2.734   2.089  1.9062 -2.5212 -2.5117
   68ST     H1V 1372   0.876  -2.589   2.125  1.7429  0.5324  1.4535
   69EH     H00 1373   1.775  -4.173   1.793  0.2870 -0.4397  0.4187
   69EH     C01 1374   1.692  -4.213   1.735 -0.0480  0.3631  0.3384
   69EH     H02 1375   1.598  -4.161   1.755 -1.6253 -2.3506  0.2932
   69EH     H03 1376   1.724  -4.190   1.633 -1.1834 -0.2535 -0.1659
   69EH     C04 1377   1.679  -4.363   1.764  0.0922  0.8281 -0.1845
   69EH     C05 1378   1.618  -4.404   1.881  0.1975  0.3944  0.6580
   69EH     H06 1379   1.608  -4.511   1.877 -0.1117  0.4769 -1.1521
   69EH     H07 1380   1.527  -4.347   1.894 -1.7164 -3.0895  3.6230
   69EH     C08 1381   1.804  -4.441   1.729 -0.1680 -0.3154 -0.4824
   69EH     O09 1382   1.818  -4.564   1.745  0.0480  0.5058  0.0725
   69EH     O0A 1383   1.909  -4.358   1.704 -1.1464  0.2877 -0.2302
   69EH     C0B 1384   2.042  -4.413   1.683 -0.4544  0.8294 -0.0943
   69EH     H0C 1385   2.049  -4.494   1.610 -1.6808 -0.9709  1.7529
   69EH     H0D 1386   2.069  -4.458   1.778 -0.0981  0.5628 -0.3200
   69EH     C0E 1387   2.131  -4.294   1.645 -0.2007  0.6236 -0.3057
   69EH     H0F 1388   2.140  -4.235   1.736 -2.1001 -2.4446  1.9780
   69EH     C0G 1389   2.273  -4.363   1.637  0.3843  0.4897  0.2150
   69EH     H0H 1390   2.281  -4.434   1.555 -1.0345 -0.4728  0.8829
   69EH     H0I 1391   2.283  -4.434   1.720 -0.2610  1.7540  1.4001
   69EH     C0J 1392   2.395  -4.271   1.647 -0.2370  0.8209  0.3899
   69EH     H0K 1393   2.382  -4.206   1.734  1.5283  1.0278  0.5038
   69EH     H0M 1394   2.488  -4.327   1.652 -1.1454 -0.8820 -1.0545
   69EH     H0N 1395   2.398  -4.210   1.556 -0.7960  0.0592 -0.1457
   69EH     C0O 1396   2.093  -4.213   1.521  0.8886 -0.3558 -0.6425
   69EH     H0P 1397   2.181  -4.171   1.473  0.6903  1.0437  0.2069
   69EH     H0Q 1398   2.025  -4.135   1.554  1.9288 -0.2382  1.3224
   69EH     C0R 1399   2.023  -4.291   1.407  0.1348  0.5909 -0.5816
   69EH     H0S 1400   1.928  -4.334   1.440  0.0351  0.0274 -1.5769
   69EH     H0T 1401   2.080  -4.377   1.374 -1.8497 -1.0053  0.0445
   69EH     C0U 1402   1.988  -4.194   1.285  0.1933  0.1943 -0.1481
   69EH     H0V 1403   1.964  -4.097   1.328  1.1500  0.0755  0.6873
   69EH     H0W 1404   2.080  -4.185   1.226  1.2370 -1.5998  1.1462
   69EH     C0X 1405   1.872  -4.242   1.199  0.2428 -0.1117 -0.0947
   69EH     H0Y 1406   1.836  -4.160   1.137 -0.5333  0.1299  0.6539
   69EH     H0Z 1407   1.786  -4.274   1.259 -0.9295  1.9171 -0.6378
   69EH     H10 1408   1.889  -4.333   1.142  0.8106 -0.7377  1.0555
   70LA     H00 1409   1.473  -4.458   2.083 -0.2557  1.1535  1.2241
   70LA     C01 1410   1.578  -4.471   2.110 -0.0033  0.5233 -0.0420
   70LA     H02 1411   1.587  -4.453   2.217  2.5847 -0.6122 -0.0523
   70LA     H03 1412   1.599  -4.578   2.105  0.1480  0.6048 -1.2522
   70LA     C04 1413   1.682  -4.382   2.032 -0.4516  0.3172 -0.2804
   70LA     C05 1414   1.811  -4.425   2.021 -0.0884 -0.0892  0.0517
   70LA     H06 1415   1.866  -4.353   1.963 -0.5162 -1.2669 -1.8530
   70LA     H07 1416   1.817  -4.529   1.994 -0.1971 -0.7409  2.3907
   70LA     C08 1417   1.662  -4.241   2.060 -0.2332 -0.1846 -0.1621
   70LA     O09 1418   1.556  -4.204   2.109  0.1637 -0.0546  0.3392
   70LA     O0A 1419   1.759  -4.148   2.024 -0.4072 -0.4614  0.0020
   70LA     C0B 1420   1.732  -4.009   2.032  0.2309  0.2322  1.0606
   70LA     H0C 1421   1.629  -4.000   1.998  0.3685  0.1471  0.6186
   70LA     H0D 1422   1.732  -3.969   2.133 -2.4378  0.9695  0.7953
   70LA     C0E 1423   1.820  -3.924   1.947 -0.8397 -0.2835  0.3824
   70LA     H0F 1424   1.815  -3.956   1.842  2.1067  2.4598 -0.6678
   70LA     H0G 1425   1.785  -3.821   1.945  0.4214  0.1602  0.5937
   70LA     C0H 1426   1.971  -3.941   1.995 -0.0960 -0.0839  0.4004
   70LA     H0I 1427   1.973  -3.917   2.102  0.3385 -0.8396  0.5673
   70LA     H0J 1428   1.996  -4.047   1.988 -4.5784 -1.0831 -2.3932
   70LA     C0K 1429   2.065  -3.835   1.922  0.1649 -0.5574  0.1337
   70LA     H0M 1430   2.013  -3.739   1.914 -0.3039 -0.8612 -0.5258
   70LA     H0N 1431   2.157  -3.810   1.975 -0.0201 -0.4404  0.3992
   70LA     C0O 1432   2.089  -3.852   1.771 -0.4084 -0.1075  0.1370
   70LA     H0P 1433   2.142  -3.947   1.766 -0.6796 -0.2505 -0.0304
   70LA     H0Q 1434   1.995  -3.874   1.722 -0.6460 -1.4431  1.1769
   70LA     C0R 1435   2.171  -3.737   1.709  0.4072  0.0088 -0.5341
   70LA     H0S 1436   2.114  -3.644   1.708 -0.8017 -0.7177 -1.0298
   70LA     H0T 1437   2.259  -3.722   1.771 -0.5572  0.5360  0.7275
   70LA     C0U 1438   2.196  -3.760   1.565  0.4215  0.4080  0.0356
   70LA     H0V 1439   2.265  -3.845   1.566 -0.9189 -0.6891  0.0273
   70LA     H0W 1440   2.108  -3.782   1.504  0.6716  1.5785 -0.7710
   70LA     C0X 1441   2.267  -3.641   1.486 -0.8340  0.4671  0.1183
   70LA     H0Y 1442   2.199  -3.564   1.449  0.8238  0.9990 -1.9158
   70LA     H0Z 1443   2.335  -3.586   1.551  0.1647  2.3140 -2.4287
   70LA     C10 1444   2.348  -3.677   1.362  0.5143  0.5185 -0.2427
   70LA     H11 1445   2.441  -3.728   1.388 -0.7253 -1.7265 -0.0877
   70LA     H12 1446   2.374  -3.580   1.319 -0.8135  1.2969  0.6668
   70LA     C13 1447   2.279  -3.772   1.252 -0.4394  0.3242  0.7371
   70LA     H14 1448   2.179  -3.742   1.221 -0.3319  0.2821  0.3521
   70LA     H15 1449   2.261  -3.869   1.299  1.3267 -0.4580 -0.1633
   70LA     C16 1450   2.363  -3.800   1.125 -0.2356 -0.2679  0.2040
   70LA     H17 1451   2.459  -3.848   1.142 -0.6037 -0.9206  0.4347
   70LA     H18 1452   2.391  -3.704   1.081 -1.1857  0.0551  0.2955
   70LA     C19 1453   2.286  -3.878   1.018  0.1843  0.6025 -0.0214
   70LA     H1A 1454   2.189  -3.834   0.994  0.6896  1.4517 -0.5014
   70LA     H1B 1455   2.273  -3.983   1.044  1.5230  0.3890 -0.2066
   70LA     H1C 1456   2.342  -3.876   0.924 -1.1555  3.0699 -0.8208
   71LA     H00 1457   1.792  -4.503   2.310  0.1709  1.1197 -1.2278
   71LA     C01 1458   1.867  -4.546   2.244 -0.2366 -0.5524 -0.6185
   71LA     H02 1459   1.951  -4.590   2.298  0.5353  3.0092  1.2436
   71LA     H03 1460   1.812  -4.621   2.187 -2.5059  1.2628 -0.8914
   71LA     C04 1461   1.919  -4.433   2.153  0.4196  0.0474 -0.2166
   71LA     C05 1462   1.925  -4.303   2.203 -0.5451 -0.5556  0.0387
   71LA     H06 1463   1.966  -4.228   2.137  0.2279  0.1258  1.2712
   71LA     H07 1464   1.828  -4.281   2.244 -0.1967  0.8021  0.1500
   71LA     C08 1465   2.037  -4.475   2.072  0.3284 -0.1354 -0.3778
   71LA     O09 1466   2.111  -4.396   2.017  0.3506  0.4796  0.5102
   71LA     O0A 1467   2.054  -4.609   2.064  0.0759 -0.3311  0.3026
   71LA     C0B 1468   2.163  -4.666   1.990  0.0610  0.2152 -0.1498
   71LA     H0C 1469   2.256  -4.629   2.033 -0.6183  1.4632  0.2505
   71LA     H0D 1470   2.157  -4.619   1.892  2.3526  0.5038 -0.1751
   71LA     C0E 1471   2.151  -4.821   1.994 -0.2531  0.5897  0.3973
   71LA     H0F 1472   2.239  -4.880   1.968  0.1702  1.5875 -0.4266
   71LA     H0G 1473   2.130  -4.852   2.097  2.4837 -1.1546  0.4953
   71LA     C0H 1474   2.040  -4.861   1.892  0.2765 -0.5331 -0.1135
   71LA     H0I 1475   1.996  -4.951   1.935 -0.7811 -0.3551 -0.8034
   71LA     H0J 1476   1.956  -4.793   1.901  2.7342  2.4881  0.5614
   71LA     C0K 1477   2.089  -4.900   1.744  0.5263 -0.6382 -0.2070
   71LA     H0M 1478   2.184  -4.954   1.750  0.1900 -1.2987 -0.7839
   71LA     H0N 1479   2.011  -4.973   1.721  0.8303 -0.3572 -2.2028
   71LA     C0O 1480   2.104  -4.772   1.653 -0.5983 -0.2474  0.7152
   71LA     H0P 1481   2.003  -4.732   1.661 -0.3854  0.5853 -0.5929
   71LA     H0Q 1482   2.173  -4.705   1.704  0.5189 -0.7185 -0.1324
   71LA     C0R 1483   2.145  -4.813   1.509  0.3974  0.2262 -0.0730
   71LA     H0S 1484   2.241  -4.865   1.505  0.3102  0.0783 -0.2174
   71LA     H0T 1485   2.079  -4.887   1.466  0.0346  0.8786 -0.6351
   71LA     C0U 1486   2.154  -4.707   1.404 -0.3884 -0.9835  0.0955
   71LA     H0V 1487   2.056  -4.673   1.371 -0.3436 -0.7375  0.2105
   71LA     H0W 1488   2.210  -4.623   1.445 -0.5600 -2.2931  3.1222
   71LA     C0X 1489   2.212  -4.764   1.276  0.2697 -0.4203 -0.6310
   71LA     H0Y 1490   2.300  -4.814   1.317  0.0785 -1.5600 -1.5799
   71LA     H0Z 1491   2.161  -4.842   1.219  2.8789 -2.0091 -0.9065
   71LA     C10 1492   2.243  -4.660   1.167  0.0761 -0.3994 -0.5358
   71LA     H11 1493   2.304  -4.694   1.084  3.3807  2.8973  0.4120
   71LA     H12 1494   2.315  -4.588   1.205 -1.3186 -0.6854  2.8764
   71LA     C13 1495   2.122  -4.582   1.119 -0.0305  0.0712  0.0384
   71LA     H14 1496   2.151  -4.492   1.064 -1.1741 -0.2304 -1.0709
   71LA     H15 1497   2.063  -4.544   1.202  0.4039  0.7865  0.0258
   71LA     C16 1498   2.033  -4.667   1.028 -0.7173  1.0510 -0.3186
   71LA     H17 1499   2.011  -4.766   1.069  0.8330  0.4549 -0.8738
   71LA     H18 1500   2.092  -4.690   0.939  0.8437  0.6749  0.7966
   71LA     C19 1501   1.907  -4.585   0.983 -0.2723 -0.4662  0.0626
   71LA     H1A 1502   1.842  -4.637   0.912 -0.1146 -0.5004 -0.0567
   71LA     H1B 1503   1.941  -4.490   0.941  2.9575 -1.3890  0.4854
   71LA     H1C 1504   1.843  -4.564   1.068 -0.4690 -0.0387 -0.1888
   72EH     H00 1505   2.195  -4.255   2.246  0.0668 -1.1599 -1.3188
   72EH     C01 1506   2.148  -4.324   2.315 -0.0929  0.5560  0.3236
   72EH     H02 1507   2.144  -4.429   2.287 -0.1945  0.2587  1.4216
   72EH     H03 1508   2.199  -4.319   2.411 -1.2175  1.0220  0.9121
   72EH     C04 1509   2.006  -4.267   2.342  0.5234  0.5211 -0.2255
   72EH     C05 1510   1.983  -4.129   2.338  0.0735  0.6867  0.7292
   72EH     H06 1511   1.877  -4.108   2.336 -0.2051 -0.8341 -0.8713
   72EH     H07 1512   2.043  -4.084   2.260  0.1271 -1.6287 -0.6103
   72EH     C08 1513   1.932  -4.334   2.449  0.2909  0.3885  0.2274
   72EH     O09 1514   1.821  -4.307   2.490  0.1679 -0.5071  0.0563
   72EH     O0A 1515   2.008  -4.434   2.500 -0.0362 -0.1207  0.3425
   72EH     C0B 1516   1.951  -4.526   2.600 -0.0097 -0.3046 -0.8685
   72EH     H0C 1517   1.870  -4.581   2.553  0.3374 -1.2192 -0.4095
   72EH     H0D 1518   1.908  -4.469   2.682 -2.7272 -1.3092 -1.5403
   72EH     C0E 1519   2.059  -4.622   2.655 -0.1709  0.4972 -0.1523
   72EH     H0F 1520   2.142  -4.562   2.694  0.3571  0.1595 -0.7575
   72EH     C0G 1521   2.000  -4.709   2.767 -0.2847  0.1789  0.2397
   72EH     H0H 1522   1.977  -4.652   2.857  0.2979 -1.8990  1.7417
   72EH     H0I 1523   2.079  -4.779   2.794 -0.5608 -0.0750  0.4073
   72EH     C0J 1524   1.859  -4.785   2.737 -0.8747 -0.1713  0.3598
   72EH     H0K 1525   1.776  -4.724   2.772  0.8454  2.4419  0.0475
   72EH     H0M 1526   1.864  -4.882   2.787 -0.7602 -0.0785  0.5311
   72EH     H0N 1527   1.841  -4.812   2.633 -0.8824  1.1500  0.0127
   72EH     C0O 1528   2.119  -4.710   2.545 -0.4347  0.0093 -0.1130
   72EH     H0P 1529   2.144  -4.807   2.587  2.2116  0.8578  0.3771
   72EH     H0Q 1530   2.040  -4.733   2.474 -1.6518  1.8215  0.6061
   72EH     C0R 1531   2.242  -4.662   2.471 -0.2698  0.0226 -0.1374
   72EH     H0S 1532   2.318  -4.641   2.547 -0.8435 -0.5047  0.5787
   72EH     H0T 1533   2.215  -4.564   2.431 -1.2586 -0.3816 -0.4650
   72EH     C0U 1534   2.312  -4.756   2.362  0.4143  0.0733 -0.3583
   72EH     H0V 1535   2.330  -4.855   2.403  2.5887  1.2878  1.7640
   72EH     H0W 1536   2.252  -4.766   2.272  1.5593  3.9535 -1.6434
   72EH     C0X 1537   2.439  -4.694   2.309  0.5649 -0.0257 -0.4700
   72EH     H0Y 1538   2.520  -4.667   2.376 -0.8606 -0.1520  1.3543
   72EH     H0Z 1539   2.404  -4.601   2.263 -1.2328 -0.3532  0.1887
   72EH     H10 1540   2.480  -4.757   2.230  1.3015  0.6182 -0.6085
   73EH     H00 1541   2.148  -4.167   2.545 -0.7490 -1.4333 -3.1217
   73EH     C01 1542   2.150  -4.068   2.500  0.3140  0.0382 -0.0101
   73EH     H02 1543   2.194  -3.991   2.563  0.7971 -0.8417  0.7306
   73EH     H03 1544   2.213  -4.067   2.411 -0.4928 -0.0582 -0.5952
   73EH     C04 1545   2.006  -4.028   2.459  0.4845  0.0004  0.2642
   73EH     C05 1546   1.898  -4.040   2.548  0.3443  0.6120 -0.7823
   73EH     H06 1547   1.908  -4.131   2.606 -0.8662  1.9175  1.5490
   73EH     H07 1548   1.803  -4.004   2.512 -1.8460 -0.3626  3.6274
   73EH     C08 1549   2.010  -3.907   2.378  0.6492  0.3041 -0.1914
   73EH     O09 1550   1.906  -3.848   2.347  0.2788 -0.1210  0.6697
   73EH     O0A 1551   2.134  -3.855   2.374 -0.0063  0.1427  0.0976
   73EH     C0B 1552   2.144  -3.722   2.322 -0.3480  0.5790 -0.1981
   73EH     H0C 1553   2.097  -3.648   2.386  2.5916  1.0822  1.4811
   73EH     H0D 1554   2.096  -3.721   2.224 -2.9562 -2.5355  0.9552
   73EH     C0E 1555   2.294  -3.674   2.314 -0.0069 -0.3831 -0.7487
   73EH     H0F 1556   2.287  -3.574   2.271  0.8223  0.4180  0.9253
   73EH     C0G 1557   2.364  -3.651   2.457 -0.2143 -0.4820  0.2979
   73EH     H0H 1558   2.472  -3.635   2.458 -0.3717  0.8736 -1.2483
   73EH     H0I 1559   2.343  -3.735   2.523  0.9880 -0.4018  0.7985
   73EH     C0J 1560   2.324  -3.527   2.532  0.1051 -0.7039 -0.3572
   73EH     H0K 1561   2.371  -3.539   2.630  1.8377  1.4052 -0.9135
   73EH     H0M 1562   2.366  -3.440   2.483  1.5198 -1.5536 -0.6848
   73EH     H0N 1563   2.219  -3.500   2.548  0.5654 -0.2752  2.1411
   73EH     C0O 1564   2.386  -3.773   2.233 -0.0002  0.3263 -1.0642
   73EH     H0P 1565   2.392  -3.871   2.281 -0.6949  0.0411 -1.5589
   73EH     H0Q 1566   2.329  -3.796   2.143  0.3960 -2.1155 -0.7425
   73EH     C0R 1567   2.511  -3.712   2.182  0.0971 -0.1191 -0.1928
   73EH     H0S 1568   2.574  -3.685   2.267 -1.6912 -0.0593  1.1354
   73EH     H0T 1569   2.489  -3.614   2.138 -2.2235 -0.0664  1.0135
   73EH     C0U 1570   2.604  -3.809   2.107 -0.4122 -0.1796  0.3917
   73EH     H0V 1571   2.604  -3.895   2.174  1.8759 -0.7334 -0.2897
   73EH     H0W 1572   2.554  -3.854   2.022  2.9793  1.5742 -2.6620
   73EH     C0X 1573   2.741  -3.740   2.068 -0.1668  0.4848 -0.7735
   73EH     H0Y 1574   2.797  -3.800   1.997  0.2136 -0.9672  0.7166
   73EH     H0Z 1575   2.805  -3.716   2.153 -0.4464 -0.9060 -0.1635
   73EH     H10 1576   2.726  -3.646   2.015 -2.8775  0.1543 -0.6565
   74LA     H00 1577   1.654  -3.973   2.661 -1.0853 -2.8703  0.9507
   74LA     C01 1578   1.740  -4.004   2.722  0.8477 -0.1033 -0.2415
   74LA     H02 1579   1.728  -3.973   2.825  1.3738  2.4219 -0.9230
   74LA     H03 1580   1.734  -4.113   2.719  0.0648 -0.0568 -0.6218
   74LA     C04 1581   1.882  -3.954   2.684  0.5392 -0.3113 -0.6616
   74LA     C05 1582   1.888  -3.822   2.637  0.3910  0.1648 -0.0775
   74LA     H06 1583   1.810  -3.810   2.563  0.1130  1.3046  0.3868
   74LA     H07 1584   1.990  -3.804   2.609  0.0457 -0.3636 -1.7055
   74LA     C08 1585   1.990  -4.002   2.773  0.3412 -0.1635  0.2758
   74LA     O09 1586   2.096  -3.937   2.796 -0.0861 -0.2481  0.1135
   74LA     O0A 1587   1.944  -4.116   2.840  0.3035 -0.5409 -0.3102
   74LA     C0B 1588   2.024  -4.183   2.939 -0.3889 -0.7773 -1.1253
   74LA     H0C 1589   2.128  -4.188   2.907 -0.1812 -1.6171 -0.3337
   74LA     H0D 1590   2.027  -4.117   3.025  2.7012  0.2943 -1.9954
   74LA     C0E 1591   1.953  -4.317   2.963 -0.0215 -0.1807  0.2148
   74LA     H0F 1592   1.964  -4.374   2.870  1.9215 -1.7508  1.3584
   74LA     H0G 1593   2.007  -4.374   3.038  0.1738 -1.4350 -0.8698
   74LA     C0H 1594   1.804  -4.310   2.992 -0.5820 -0.6535  0.4114
   74LA     H0I 1595   1.785  -4.251   3.081  1.0428  0.9190 -0.2666
   74LA     H0J 1596   1.770  -4.258   2.903  1.6786 -1.7677 -1.1672
   74LA     C0K 1597   1.729  -4.447   2.995  0.2436 -0.1113  0.3095
   74LA     H0M 1598   1.743  -4.499   2.900  2.7237  1.6060 -0.3308
   74LA     H0N 1599   1.777  -4.517   3.064 -0.8736 -2.8804 -1.6385
   74LA     C0O 1600   1.576  -4.436   3.017 -0.3357  0.1110  0.6565
   74LA     H0P 1601   1.527  -4.533   3.015 -0.7155  0.3167 -0.9442
   74LA     H0Q 1602   1.553  -4.388   3.112  1.0203 -0.4544  1.2752
   74LA     C0R 1603   1.505  -4.350   2.908 -0.0522 -0.1262 -0.0950
   74LA     H0S 1604   1.530  -4.244   2.907 -2.3105  0.4641  1.5326
   74LA     H0T 1605   1.541  -4.392   2.814  0.0410 -2.9826  1.1857
   74LA     C0U 1606   1.352  -4.360   2.927  0.0710 -0.1398 -0.2004
   74LA     H0V 1607   1.318  -4.458   2.893  2.1680 -0.7275 -0.6755
   74LA     H0W 1608   1.336  -4.353   3.034 -0.0674  1.1461 -0.2987
   74LA     C0X 1609   1.273  -4.249   2.842 -0.0079  0.3611  0.9294
   74LA     H0Y 1610   1.168  -4.255   2.869 -0.0854  0.6577  0.6922
   74LA     H0Z 1611   1.298  -4.149   2.876  0.7210  1.1141 -1.6912
   74LA     C10 1612   1.288  -4.239   2.688  0.0573  0.0038  0.0698
   74LA     H11 1613   1.390  -4.257   2.655 -0.0374 -3.7401  1.6673
   74LA     H12 1614   1.266  -4.135   2.664 -2.3415 -0.1824  1.3158
   74LA     C13 1615   1.181  -4.338   2.618 -0.0772 -0.1851 -0.2620
   74LA     H14 1616   1.081  -4.340   2.661  0.2529 -0.8581  0.4851
   74LA     H15 1617   1.217  -4.440   2.632 -1.6917 -0.9412 -1.4046
   74LA     C16 1618   1.165  -4.311   2.464 -0.4500  0.2661 -1.1956
   74LA     H17 1619   1.163  -4.205   2.439  0.3170  0.4875 -0.3162
   74LA     H18 1620   1.067  -4.349   2.434  0.4338 -1.7291 -1.6803
   74LA     C19 1621   1.281  -4.365   2.380  0.5797  0.0778  0.1375
   74LA     H1A 1622   1.369  -4.301   2.384 -0.2221  1.2227 -0.0571
   74LA     H1B 1623   1.259  -4.369   2.274  3.4994 -2.3190 -0.4213
   74LA     H1C 1624   1.317  -4.464   2.407 -0.2148 -0.1029  0.5737
   75EH     H00 1625   1.911  -3.629   2.922  2.9103  0.4183  0.5711
   75EH     C01 1626   1.934  -3.705   2.847  0.0212 -0.2161  0.2601
   75EH     H02 1627   2.040  -3.694   2.822 -0.0259  0.7117  0.4365
   75EH     H03 1628   1.911  -3.793   2.907  0.3257 -0.0261  0.6637
   75EH     C04 1629   1.842  -3.688   2.725 -0.1100 -0.2706  0.2764
   75EH     C05 1630   1.871  -3.586   2.636 -0.7393 -0.1138 -0.2736
   75EH     H06 1631   1.973  -3.586   2.601 -0.4184  0.4368  0.6465
   75EH     H07 1632   1.795  -3.585   2.558 -0.0472 -2.0879 -1.0254
   75EH     C08 1633   1.702  -3.717   2.755  0.2190 -0.1268 -0.4943
   75EH     O09 1634   1.613  -3.728   2.672 -0.0047  0.5074  0.3739
   75EH     O0A 1635   1.671  -3.711   2.889  0.3919  0.0692  0.0396
   75EH     C0B 1636   1.533  -3.730   2.927 -0.3536 -0.0502 -0.2205
   75EH     H0C 1637   1.479  -3.806   2.870  0.5802 -1.8662  1.2722
   75EH     H0D 1638   1.484  -3.638   2.893 -0.2143  0.2708  0.4455
   75EH     C0E 1639   1.531  -3.752   3.084  0.3121 -0.3774 -0.3272
   75EH     H0F 1640   1.428  -3.756   3.121  0.2666 -0.4744 -0.4637
   75EH     C0G 1641   1.576  -3.895   3.117  0.0513  0.8231  0.3019
   75EH     H0H 1642   1.598  -3.912   3.223 -2.9279 -1.5159  0.6329
   75EH     H0I 1643   1.673  -3.925   3.076  0.1221 -1.1076  1.7776
   75EH     C0J 1644   1.474  -4.010   3.078 -0.1232 -0.2125  1.3806
   75EH     H0K 1645   1.470  -4.032   2.971 -1.0542  1.0199  1.1441
   75EH     H0M 1646   1.371  -3.977   3.089 -0.8079 -2.6626  2.7083
   75EH     H0N 1647   1.498  -4.101   3.133  0.7604 -0.8634 -0.0656
   75EH     C0O 1648   1.609  -3.635   3.154  0.5976  0.4213 -0.1241
   75EH     H0P 1649   1.605  -3.653   3.261 -0.4535  0.8204 -0.0920
   75EH     H0Q 1650   1.711  -3.638   3.117  0.9591 -1.6262  0.9474
   75EH     C0R 1651   1.552  -3.491   3.139  0.2492 -0.1610  0.5297
   75EH     H0S 1652   1.455  -3.491   3.189  0.6227  1.5651  1.2910
   75EH     H0T 1653   1.540  -3.465   3.034  2.1285  0.2887  0.4084
   75EH     C0U 1654   1.641  -3.379   3.198 -0.4372 -0.6208  0.4676
   75EH     H0V 1655   1.670  -3.397   3.301 -2.8376 -0.2183  1.2522
   75EH     H0W 1656   1.730  -3.356   3.141 -0.8586  2.7750  1.0796
   75EH     C0X 1657   1.553  -3.248   3.194 -0.1604  0.4181  0.0020
   75EH     H0Y 1658   1.453  -3.268   3.234 -0.8684  2.3934 -0.7343
   75EH     H0Z 1659   1.539  -3.205   3.095 -1.0218  0.1021 -0.0187
   75EH     H10 1660   1.604  -3.175   3.256  0.2186  0.2800 -0.1445
   76EH     H00 1661   1.646  -3.330   2.708  0.9027  0.7474 -3.0858
   76EH     C01 1662   1.693  -3.429   2.709 -0.4917  0.0797 -0.3427
   76EH     H02 1663   1.671  -3.464   2.810 -0.5109  1.5880  0.1931
   76EH     H03 1664   1.627  -3.486   2.644  1.2213 -2.8079  0.3513
   76EH     C04 1665   1.848  -3.428   2.673 -0.3087  0.3024 -0.7811
   76EH     C05 1666   1.935  -3.403   2.783  0.0904 -0.0876  0.2997
   76EH     H06 1667   1.886  -3.441   2.871 -1.7944 -3.3958 -2.0423
   76EH     H07 1668   2.031  -3.445   2.757  1.1841  1.9968  0.8781
   76EH     C08 1669   1.875  -3.370   2.538  0.0397 -0.0289  0.6411
   76EH     O09 1670   1.980  -3.374   2.472  0.2578  0.5404 -0.2919
   76EH     O0A 1671   1.764  -3.306   2.498  0.0462  0.2121  0.3814
   76EH     C0B 1672   1.768  -3.237   2.371 -0.3138  0.3061  0.2153
   76EH     H0C 1673   1.789  -3.307   2.291  0.2252 -0.1302  0.7422
   76EH     H0D 1674   1.856  -3.173   2.363  0.5300 -0.8307  0.4199
   76EH     C0E 1675   1.643  -3.157   2.352  0.0282  0.7298 -0.2275
   76EH     H0F 1676   1.637  -3.098   2.443 -1.7192 -1.1133  0.8909
   76EH     C0G 1677   1.649  -3.062   2.228  0.4410  0.1066  0.3784
   76EH     H0H 1678   1.747  -3.014   2.239 -0.6385  2.4521  0.0466
   76EH     H0I 1679   1.580  -2.978   2.225  2.3729  1.7571  0.4914
   76EH     C0J 1680   1.648  -3.118   2.081  0.2967  0.1356 -0.5317
   76EH     H0K 1681   1.555  -3.173   2.066  0.3869 -0.2687  0.3616
   76EH     H0M 1682   1.738  -3.169   2.047  0.0492 -2.8631  2.9521
   76EH     H0N 1683   1.633  -3.032   2.016 -2.2638  2.0736  2.4454
   76EH     C0O 1684   1.522  -3.258   2.355  0.3744 -0.5268  0.2530
   76EH     H0P 1685   1.529  -3.345   2.290 -0.5548  0.2301 -0.8925
   76EH     H0Q 1686   1.528  -3.306   2.452 -0.4165  1.9554  1.5650
   76EH     C0R 1687   1.380  -3.194   2.345 -0.7003  0.4938 -0.0161
   76EH     H0S 1688   1.363  -3.139   2.253 -3.2265  0.0610  0.1660
   76EH     H0T 1689   1.365  -3.124   2.428  0.6660 -0.3553  0.9834
   76EH     C0U 1690   1.271  -3.292   2.375  0.3750  0.4019  0.7669
   76EH     H0V 1691   1.277  -3.387   2.321  0.9098  0.2186  1.1482
   76EH     H0W 1692   1.278  -3.325   2.479  0.9708  1.2044  0.9799
   76EH     C0X 1693   1.130  -3.241   2.358 -0.7348  1.0214  0.2532
   76EH     H0Y 1694   1.062  -3.321   2.388  0.2232  0.2269  0.3307
   76EH     H0Z 1695   1.124  -3.205   2.256  1.1112 -0.0801 -0.2677
   76EH     H10 1696   1.115  -3.163   2.432  0.7999  0.1547  1.5229
   77EH     H00 1697   2.154  -3.138   2.735 -1.8670  1.3908  0.5396
   77EH     C01 1698   2.080  -3.212   2.706  0.1104 -0.3824 -0.0963
   77EH     H02 1699   2.027  -3.168   2.621  0.9938 -2.7975 -1.9673
   77EH     H03 1700   2.130  -3.297   2.661 -0.7004 -1.5411  1.1685
   77EH     C04 1701   1.982  -3.252   2.817  0.1146  0.4235 -0.2516
   77EH     C05 1702   1.864  -3.180   2.821  0.0397  0.2842  0.1323
   77EH     H06 1703   1.815  -3.177   2.725  1.5021  0.4115 -0.6271
   77EH     H07 1704   1.799  -3.219   2.898  0.9603 -1.5923  0.0001
   77EH     C08 1705   2.038  -3.286   2.945  0.1602 -0.9411 -0.1632
   77EH     O09 1706   1.978  -3.302   3.051 -0.3743 -0.1848 -0.2491
   77EH     O0A 1707   2.175  -3.282   2.941  0.0190  0.4216 -0.3349
   77EH     C0B 1708   2.255  -3.301   3.059  0.2566  0.8566 -0.1572
   77EH     H0C 1709   2.269  -3.403   3.094 -0.2424  1.0554  0.6233
   77EH     H0D 1710   2.216  -3.252   3.149 -0.3419 -1.3499  0.8080
   77EH     C0E 1711   2.389  -3.232   3.028  0.6225 -0.6529  0.2176
   77EH     H0F 1712   2.420  -3.270   2.931 -3.4618 -0.4491 -1.2275
   77EH     C0G 1713   2.374  -3.081   2.995  0.3587  0.9338  0.5948
   77EH     H0H 1714   2.303  -3.074   2.913  3.3257 -0.2968 -2.1690
   77EH     H0I 1715   2.468  -3.043   2.956  0.4099 -1.0406 -1.3012
   77EH     C0J 1716   2.334  -2.993   3.119  0.0218 -0.2268  0.5602
   77EH     H0K 1717   2.414  -3.011   3.191  1.0854 -2.2717 -1.0672
   77EH     H0M 1718   2.241  -3.030   3.162  0.4051 -4.5752 -1.9768
   77EH     H0N 1719   2.329  -2.890   3.085  0.0301 -0.0948  0.9601
   77EH     C0O 1720   2.487  -3.263   3.153  0.0620  0.0542 -0.0087
   77EH     H0P 1721   2.565  -3.187   3.159 -0.0878  0.0720  2.1709
   77EH     H0Q 1722   2.431  -3.248   3.246 -1.5782  1.3986 -1.1840
   77EH     C0R 1723   2.548  -3.407   3.157 -0.3670 -0.5926  0.2268
   77EH     H0S 1724   2.598  -3.437   3.065  1.5437  1.3765  0.5789
   77EH     H0T 1725   2.463  -3.475   3.161  0.1228 -1.3281 -1.6395
   77EH     C0U 1726   2.637  -3.442   3.278  0.5710  0.3490  0.4838
   77EH     H0V 1727   2.593  -3.387   3.361  1.0508  0.4686  0.6639
   77EH     H0W 1728   2.652  -3.548   3.297 -2.4667 -0.4874 -1.4940
   77EH     C0X 1729   2.773  -3.374   3.263 -0.1075 -1.0727 -0.0249
   77EH     H0Y 1730   2.834  -3.383   3.352  1.0241 -0.5389 -0.7367
   77EH     H0Z 1731   2.757  -3.268   3.244 -0.5562 -1.4246 -1.6855
   77EH     H10 1732   2.837  -3.409   3.182 -0.6865 -0.9846 -0.5319
   78LA     H00 1733   2.076  -3.034   2.921 -0.7160 -0.5408 -3.1686
   78LA     C01 1734   1.978  -2.993   2.946  0.3163  0.5436 -0.6860
   78LA     H02 1735   1.949  -3.032   3.043  1.9626  0.2143 -0.3119
   78LA     H03 1736   1.990  -2.885   2.961 -0.1782  0.4348  0.5334
   78LA     C04 1737   1.866  -3.017   2.846 -0.5153 -0.0174  0.1693
   78LA     C05 1738   1.737  -3.006   2.891  0.6511  0.6942 -0.1135
   78LA     H06 1739   1.673  -3.038   2.810 -1.1610  0.1129  1.5088
   78LA     H07 1740   1.721  -3.048   2.989 -1.0324 -1.8342 -1.4160
   78LA     C08 1741   1.892  -2.966   2.713 -0.5667  0.0453 -0.6409
   78LA     O09 1742   1.816  -2.980   2.617 -0.5487  0.0326  0.3295
   78LA     O0A 1743   2.014  -2.906   2.712 -0.1104  0.2341  0.1251
   78LA     C0B 1744   2.064  -2.862   2.584  0.4458  0.1040 -0.6628
   78LA     H0C 1745   1.989  -2.799   2.537 -0.0499 -0.6414 -0.8685
   78LA     H0D 1746   2.079  -2.945   2.516 -0.6988 -0.4243 -0.2721
   78LA     C0E 1747   2.190  -2.788   2.610 -0.6401 -0.3169  0.5964
   78LA     H0F 1748   2.273  -2.856   2.630  1.2768  1.6342 -0.4288
   78LA     H0G 1749   2.220  -2.735   2.520  1.1504  1.5246  2.2041
   78LA     C0H 1750   2.192  -2.686   2.731 -0.9231  0.1484 -0.9179
   78LA     H0I 1751   2.122  -2.608   2.702 -0.8572 -0.5359 -3.0698
   78LA     H0J 1752   2.144  -2.735   2.816 -2.1088  0.1433 -1.5700
   78LA     C0K 1753   2.330  -2.636   2.783  0.5092 -0.7718 -0.7135
   78LA     H0M 1754   2.380  -2.729   2.810 -0.8071 -1.8425 -1.8966
   78LA     H0N 1755   2.393  -2.597   2.704  1.5323  0.9365  0.8979
   78LA     C0O 1756   2.312  -2.542   2.907  0.3335  0.2931 -0.8558
   78LA     H0P 1757   2.272  -2.451   2.863 -1.0191  0.6387  1.0135
   78LA     H0Q 1758   2.236  -2.573   2.979 -1.0634 -0.0974 -2.4614
   78LA     C0R 1759   2.442  -2.526   2.990 -0.3110  0.3957 -0.6547
   78LA     H0S 1760   2.491  -2.623   3.005  0.7522  1.0401  0.1331
   78LA     H0T 1761   2.503  -2.442   2.959 -0.3903  0.6296 -0.1759
   78LA     C0U 1762   2.419  -2.481   3.137  0.3163 -0.3150  0.3453
   78LA     H0V 1763   2.343  -2.530   3.199 -0.2182 -1.5920 -1.2710
   78LA     H0W 1764   2.508  -2.485   3.200  0.1122 -1.2685  0.5965
   78LA     C0X 1765   2.397  -2.328   3.141  0.1260  0.1327  0.0431
   78LA     H0Y 1766   2.487  -2.272   3.116  0.1830  0.2850  0.5767
   78LA     H0Z 1767   2.329  -2.293   3.063  0.4184 -0.9245 -0.6849
   78LA     C10 1768   2.342  -2.270   3.277  0.3308 -0.3915 -0.1574
   78LA     H11 1769   2.412  -2.270   3.361  0.2960 -0.0245 -0.1271
   78LA     H12 1770   2.257  -2.325   3.316  1.6364 -1.0446  1.8870
   78LA     C13 1771   2.302  -2.117   3.276  0.3864  0.1649 -0.7767
   78LA     H14 1772   2.271  -2.083   3.375 -0.4009  0.4532 -1.1212
   78LA     H15 1773   2.213  -2.095   3.217  0.6850  1.0088 -0.9160
   78LA     C16 1774   2.407  -2.017   3.228 -0.1096 -0.0765  0.0556
   78LA     H17 1775   2.371  -1.918   3.200  1.1439 -0.1852 -2.0067
   78LA     H18 1776   2.457  -2.055   3.139  0.9840  0.0510  0.6051
   78LA     C19 1777   2.516  -1.993   3.329  0.5980  0.4385  0.5747
   78LA     H1A 1778   2.593  -1.932   3.282 -0.5156 -0.2883 -2.3396
   78LA     H1B 1779   2.555  -2.085   3.372  0.1578  0.0164  0.0917
   78LA     H1C 1780   2.481  -1.940   3.418 -1.9313 -1.1369  0.5607
   79LA     H00 1781   1.461  -2.843   3.015 -0.2977 -0.2771 -1.0638
   79LA     C01 1782   1.543  -2.914   3.005  0.5490  0.5641 -0.2279
   79LA     H02 1783   1.577  -2.945   3.104  0.2812 -1.3396 -0.7187
   79LA     H03 1784   1.507  -3.007   2.962 -0.3372  0.2714  1.0916
   79LA     C04 1785   1.656  -2.865   2.916 -0.0286 -0.7645  0.1298
   79LA     C05 1786   1.756  -2.787   2.974 -0.1236 -0.2572  0.2797
   79LA     H06 1787   1.821  -2.752   2.895  1.4235 -0.2744  1.5185
   79LA     H07 1788   1.795  -2.846   3.056  1.7156  0.3778 -0.0984
   79LA     C08 1789   1.610  -2.816   2.784 -0.0465 -0.6517  0.3579
   79LA     O09 1790   1.671  -2.728   2.718 -0.4479 -0.0123  0.3892
   79LA     O0A 1791   1.494  -2.878   2.747  0.5587 -0.6077  0.3339
   79LA     C0B 1792   1.449  -2.878   2.614  0.1792  0.9073  0.6006
   79LA     H0C 1793   1.504  -2.960   2.567 -0.8013  0.8738 -0.5139
   79LA     H0D 1794   1.482  -2.786   2.568 -0.7305  1.1446  0.4139
   79LA     C0E 1795   1.301  -2.886   2.565 -0.0635  0.2470  0.1084
   79LA     H0F 1796   1.320  -2.910   2.460 -0.3723  0.0317  0.0980
   79LA     H0G 1797   1.242  -2.967   2.610  0.0581  0.1728  0.1349
   79LA     C0H 1798   1.226  -2.752   2.576  0.1785  0.7879  0.3629
   79LA     H0I 1799   1.251  -2.687   2.660 -0.2718  2.8632 -1.0795
   79LA     H0J 1800   1.256  -2.687   2.493 -2.2809  1.8637  0.2851
   79LA     C0K 1801   1.072  -2.777   2.580 -0.4207 -0.6453 -0.0210
   79LA     H0M 1802   1.040  -2.840   2.497 -0.0066 -2.8177  1.4148
   79LA     H0N 1803   1.059  -2.834   2.672 -0.1870  0.0920  0.4732
   79LA     C0O 1804   0.974  -2.660   2.606 -0.1863  0.4436 -0.6234
   79LA     H0P 1805   0.869  -2.688   2.614 -0.2890  0.7434 -0.8828
   79LA     H0Q 1806   1.003  -2.620   2.703  0.0328  2.2218 -1.4081
   79LA     C0R 1807   0.978  -2.540   2.508 -0.2560 -0.4566  0.6124
   79LA     H0S 1808   1.078  -2.498   2.512  0.7703 -2.3630 -2.7319
   79LA     H0T 1809   0.960  -2.579   2.407  0.6335 -2.6420  1.2655
   79LA     C0U 1810   0.885  -2.423   2.541 -0.0288 -1.4382  0.5740
   79LA     H0V 1811   0.783  -2.457   2.554 -0.8766  0.3352 -1.1268
   79LA     H0W 1812   0.913  -2.379   2.637 -2.9180  0.3770  0.6380
   79LA     C0X 1813   0.890  -2.312   2.439  0.0014 -0.2516 -0.2501
   79LA     H0Y 1814   0.986  -2.263   2.451 -0.2802 -0.0618  1.4140
   79LA     H0Z 1815   0.889  -2.346   2.336  0.4394 -1.6169  0.1964
   79LA     C10 1816   0.770  -2.217   2.447 -0.3559 -0.2514 -0.2444
   79LA     H11 1817   0.678  -2.275   2.444 -0.3977 -0.2422  0.8358
   79LA     H12 1818   0.768  -2.158   2.356 -1.6141 -1.1377 -0.7991
   79LA     C13 1819   0.773  -2.124   2.577 -0.1230 -0.0421  0.1985
   79LA     H14 1820   0.790  -2.191   2.662 -0.3633 -0.2445  0.0885
   79LA     H15 1821   0.674  -2.083   2.597  0.0817 -0.1908  1.5379
   79LA     C16 1822   0.885  -2.018   2.573 -0.8185  0.6833 -0.4738
   79LA     H17 1823   0.881  -1.964   2.478  2.4098  0.7956 -0.5950
   79LA     H18 1824   0.988  -2.051   2.574 -0.4794  1.5067 -3.6279
   79LA     C19 1825   0.886  -1.925   2.696 -0.2959 -0.6496 -0.1146
   79LA     H1A 1826   0.791  -1.875   2.714  0.8261  0.5265  2.8598
   79LA     H1B 1827   0.961  -1.849   2.671 -0.1306 -1.0168 -0.7650
   79LA     H1C 1828   0.933  -1.981   2.777 -0.8148  1.7739  1.9057
   80EH     H00 1829   1.567  -2.490   3.032 -1.3302 -1.5842  1.8507
   80EH     C01 1830   1.617  -2.567   2.973 -0.4286  0.1490  0.3151
   80EH     H02 1831   1.545  -2.632   2.925 -0.4527  1.9606 -2.2119
   80EH     H03 1832   1.659  -2.514   2.887 -3.0431  2.1722  0.2191
   80EH     C04 1833   1.722  -2.649   3.060  0.0524 -0.2790 -0.2469
   80EH     C05 1834   1.851  -2.593   3.069 -0.1597  0.4049 -0.9184
   80EH     H06 1835   1.922  -2.663   3.110 -1.5519 -0.7277 -0.3996
   80EH     H07 1836   1.861  -2.547   2.972  0.2232 -1.6152 -1.8608
   80EH     C08 1837   1.666  -2.707   3.183  0.1932  0.0730 -0.2049
   80EH     O09 1838   1.723  -2.774   3.265 -0.1631 -0.0951 -0.2105
   80EH     O0A 1839   1.538  -2.685   3.195  0.3511  0.9335  0.8193
   80EH     C0B 1840   1.464  -2.733   3.308  0.0369  0.2199 -0.5486
   80EH     H0C 1841   1.521  -2.771   3.393 -1.0354  1.0949  0.5708
   80EH     H0D 1842   1.405  -2.821   3.283 -0.1712  0.4333 -0.8161
   80EH     C0E 1843   1.365  -2.624   3.355  0.2835 -0.3674  0.4014
   80EH     H0F 1844   1.321  -2.584   3.264 -0.9796  0.8672  1.5383
   80EH     C0G 1845   1.268  -2.670   3.454 -0.1186  0.4871 -0.1140
   80EH     H0H 1846   1.227  -2.589   3.514 -0.9021 -0.9835  1.4195
   80EH     H0I 1847   1.308  -2.741   3.527  0.1722  0.0788 -0.6681
   80EH     C0J 1848   1.156  -2.746   3.379 -0.2007  0.3540  1.0289
   80EH     H0K 1849   1.106  -2.686   3.304  0.5238 -1.1942 -0.7375
   80EH     H0M 1850   1.071  -2.774   3.441  0.6418 -0.9140  1.6357
   80EH     H0N 1851   1.178  -2.838   3.325  0.5738  2.4489 -2.4088
   80EH     C0O 1852   1.436  -2.491   3.399 -0.2172  0.0796 -0.2977
   80EH     H0P 1853   1.477  -2.505   3.499 -0.8357 -2.4375 -0.3411
   80EH     H0Q 1854   1.531  -2.484   3.346  0.7133 -0.0776  1.3271
   80EH     C0R 1855   1.352  -2.355   3.388 -0.7424  0.5725  0.5458
   80EH     H0S 1856   1.258  -2.379   3.439 -1.6477  2.4424 -0.2088
   80EH     H0T 1857   1.339  -2.343   3.281 -0.1660 -1.1585  0.2662
   80EH     C0U 1858   1.412  -2.231   3.453  0.5500 -0.0836 -0.0752
   80EH     H0V 1859   1.518  -2.222   3.433  0.4921  3.2531  0.7299
   80EH     H0W 1860   1.358  -2.141   3.422  0.7220 -0.5013 -1.6177
   80EH     C0X 1861   1.410  -2.234   3.610  0.2397  0.5877  0.3911
   80EH     H0Y 1862   1.317  -2.266   3.656 -0.7148  0.7849 -1.3812
   80EH     H0Z 1863   1.434  -2.133   3.643 -1.6127  0.8937  0.8433
   80EH     H10 1864   1.482  -2.303   3.657 -1.5567 -0.1505  2.1458
   81ST     H00 1865   2.064  -2.349   3.168  0.7400  0.5238 -0.7631
   81ST     C01 1866   2.022  -2.430   3.109 -0.4324  0.7936 -0.3061
   81ST     H02 1867   2.031  -2.395   3.006 -0.9244 -0.9184 -0.9502
   81ST     H03 1868   2.081  -2.519   3.129  1.2152  1.5791 -1.6115
   81ST     C04 1869   1.879  -2.453   3.155  0.8241 -0.4255  0.3301
   81ST     C05 1870   1.784  -2.361   3.113  0.5952  0.0027 -0.3722
   81ST     H06 1871   1.695  -2.372   3.174 -0.0422  3.4503 -0.5748
   81ST     H07 1872   1.766  -2.356   3.007  0.8396  0.4350 -0.3954
   81ST     C08 1873   1.870  -2.500   3.296 -0.4612  0.8476  0.5611
   81ST     O09 1874   1.781  -2.475   3.380  0.2098 -0.0656  0.7983
   81ST     O0A 1875   1.982  -2.567   3.330  0.5930 -0.4793  0.1945
   81ST     C0B 1876   2.009  -2.608   3.466  0.1955 -0.2403  0.1178
   81ST     H0C 1877   2.001  -2.522   3.533 -2.1978 -0.3660  0.0345
   81ST     H0D 1878   1.936  -2.682   3.497 -1.9842  2.0755  0.6828
   81ST     C0E 1879   2.157  -2.675   3.467  0.1576 -0.1046  1.2624
   81ST     H0F 1880   2.163  -2.736   3.557  0.9169 -0.3872  1.0250
   81ST     H0G 1881   2.233  -2.596   3.471 -0.3021  0.3393  1.2561
   81ST     C0H 1882   2.178  -2.767   3.343  0.0329 -0.0252 -0.8191
   81ST     H0I 1883   2.283  -2.796   3.343 -0.4453 -1.8061 -1.3530
   81ST     H0J 1884   2.149  -2.719   3.249  0.0768 -1.3023 -1.4958
   81ST     C0K 1885   2.092  -2.896   3.344  0.5362 -0.6163 -0.0810
   81ST     H0M 1886   1.998  -2.862   3.388  0.8497  0.9587 -0.5829
   81ST     H0N 1887   2.071  -2.931   3.243 -1.4129 -0.4535  0.2531
   81ST     C0O 1888   2.151  -3.012   3.415  0.1691 -0.5309 -0.2646
   81ST     H0P 1889   2.155  -2.987   3.521 -0.8367  3.3953 -1.0645
   81ST     H0Q 1890   2.250  -3.037   3.379  0.9563 -2.7150  3.2238
   81ST     C0R 1891   2.062  -3.141   3.396 -0.1297 -0.1561  0.8527
   81ST     H0S 1892   2.046  -3.164   3.291  0.2908 -0.0707  0.7679
   81ST     H0T 1893   1.964  -3.120   3.439  0.0230 -0.9020  1.5895
   81ST     C0U 1894   2.129  -3.269   3.460  0.5508 -0.7600  0.6431
   81ST     H0V 1895   2.115  -3.255   3.568  1.0448  1.2773  0.4672
   81ST     H0W 1896   2.236  -3.270   3.440  0.6040 -1.3374  0.9339
   81ST     C0X 1897   2.049  -3.396   3.417  0.0296 -0.0441  0.0442
   81ST     H0Y 1898   1.954  -3.396   3.472  0.8386 -1.7664  1.4907
   81ST     H0Z 1899   2.021  -3.385   3.312 -1.2044  2.4150  0.5967
   81ST     C10 1900   2.124  -3.531   3.439  0.0051  0.1854  0.1842
   81ST     H11 1901   2.204  -3.542   3.365 -1.7411  0.3319 -1.7616
   81ST     H12 1902   2.176  -3.523   3.535  0.2167  0.4415  0.0486
   81ST     C13 1903   2.027  -3.652   3.428  0.4919 -0.7712  0.7089
   81ST     H14 1904   2.074  -3.732   3.487 -0.2125  0.7575  3.4026
   81ST     H15 1905   1.930  -3.631   3.472  0.2238  3.0713 -1.5791
   81ST     C16 1906   2.007  -3.691   3.282  0.4409  1.0322  0.0712
   81ST     H17 1907   1.964  -3.610   3.222  0.9361  0.3268 -1.2568
   81ST     H18 1908   2.096  -3.713   3.224 -0.0084 -0.7762  0.0278
   81ST     C19 1909   1.909  -3.812   3.280  0.0008  0.1874  0.2291
   81ST     H1A 1910   1.829  -3.806   3.354 -0.4623 -0.8376 -0.1762
   81ST     H1B 1911   1.861  -3.818   3.183 -0.4641 -1.9617  0.5504
   81ST     C1C 1912   1.991  -3.943   3.294 -0.2303  0.2911  0.6351
   81ST     H1D 1913   2.055  -3.935   3.206 -0.6227  0.1480  0.3329
   81ST     H1E 1914   2.051  -3.949   3.385 -1.2410  0.8113  1.3453
   81ST     C1F 1915   1.901  -4.069   3.284 -0.4062  1.0527  0.0716
   81ST     H1G 1916   1.842  -4.060   3.193 -0.6322 -1.3408 -0.0392
   81ST     H1H 1917   1.976  -4.147   3.267 -0.9100  0.4962  0.4147
   81ST     C1I 1918   1.818  -4.093   3.415  0.0760  0.1714  0.2834
   81ST     H1J 1919   1.745  -4.015   3.437  0.8439  1.1374 -0.5798
   81ST     H1K 1920   1.880  -4.092   3.504 -0.5056 -1.4574  0.7244
   81ST     C1M 1921   1.747  -4.226   3.413  0.1620 -0.2192 -0.6482
   81ST     H1N 1922   1.809  -4.315   3.420  0.1545 -0.0289  2.2496
   81ST     H1O 1923   1.686  -4.237   3.323 -0.4695  0.1465 -0.2663
   81ST     C1P 1924   1.639  -4.253   3.522 -0.3743  0.2750  0.7646
   81ST     H1Q 1925   1.664  -4.207   3.618  2.1096 -0.9978  0.7610
   81ST     H1R 1926   1.544  -4.203   3.504  0.5352  3.1000  3.3331
   81ST     C1S 1927   1.600  -4.406   3.527 -0.5916  0.1835 -0.2920
   81ST     H1T 1928   1.518  -4.438   3.591  0.3649  0.9483  1.3480
   81ST     H1U 1929   1.686  -4.471   3.544 -1.4973 -0.4071  2.2382
   81ST     H1V 1930   1.564  -4.433   3.428  0.8392  1.1594 -1.0944
   82ST     H00 1931   2.016  -2.168   3.070  0.5083  0.4334  0.2093
   82ST     C01 1932   1.914  -2.154   3.035  0.3583 -0.4392  0.2990
   82ST     H02 1933   1.913  -2.053   2.995  3.4981  0.6064  2.6554
   82ST     H03 1934   1.902  -2.209   2.941  0.4126  0.5594 -0.2967
   82ST     C04 1935   1.803  -2.203   3.137 -0.3124 -0.4700 -0.7167
   82ST     C05 1936   1.831  -2.195   3.269  0.1405 -0.1832  0.3895
   82ST     H06 1937   1.932  -2.230   3.284  0.4423  0.6597  0.3817
   82ST     H07 1938   1.758  -2.237   3.335 -1.1588  1.9239  0.3440
   82ST     C08 1939   1.669  -2.158   3.094  0.5426 -0.5060  0.1653
   82ST     O09 1940   1.557  -2.175   3.144 -0.5476 -0.1114 -0.1252
   82ST     O0A 1941   1.676  -2.091   2.976 -0.2641 -0.3175  0.0920
   82ST     C0B 1942   1.568  -2.015   2.926 -0.2190 -0.0216 -1.2738
   82ST     H0C 1943   1.527  -1.950   3.004  0.6236  0.0404 -0.8700
   82ST     H0D 1944   1.490  -2.089   2.907 -0.4531 -0.3616  0.8249
   82ST     C0E 1945   1.610  -1.942   2.796 -0.7155 -0.0942  0.3124
   82ST     H0F 1946   1.630  -2.029   2.733 -2.5064 -1.6852  1.8656
   82ST     H0G 1947   1.705  -1.891   2.807 -1.7073  1.5930  1.1978
   82ST     C0H 1948   1.500  -1.857   2.729 -0.0996  0.3251  0.1343
   82ST     H0I 1949   1.403  -1.906   2.729 -0.3509  0.8219 -0.2229
   82ST     H0J 1950   1.526  -1.844   2.624 -1.1995  1.6076  0.0190
   82ST     C0K 1951   1.477  -1.719   2.805 -0.3958 -0.3394  0.1458
   82ST     H0M 1952   1.422  -1.739   2.897 -1.1912 -1.1892 -0.5029
   82ST     H0N 1953   1.565  -1.675   2.852  0.3622 -2.6296  0.9263
   82ST     C0O 1954   1.411  -1.605   2.720  0.4022 -0.0468  0.1462
   82ST     H0P 1955   1.323  -1.644   2.668 -0.9266 -0.4176  2.5629
   82ST     H0Q 1956   1.482  -1.573   2.644  0.3279  1.6870  0.7808
   82ST     C0R 1957   1.371  -1.491   2.813 -0.0155  0.1664  0.0490
   82ST     H0S 1958   1.467  -1.459   2.852  0.8161 -1.4010 -0.6463
   82ST     H0T 1959   1.313  -1.522   2.900  1.6210  0.0450  1.1171
   82ST     C0U 1960   1.305  -1.367   2.746 -0.8493 -0.8181  0.4276
   82ST     H0V 1961   1.215  -1.392   2.692 -0.0935  0.4035 -1.4422
   82ST     H0W 1962   1.367  -1.321   2.669  1.1981 -0.2774  2.3430
   82ST     C0X 1963   1.270  -1.263   2.852  0.0038 -0.0693  0.1891
   82ST     H0Y 1964   1.191  -1.300   2.917  0.5180 -1.1278  0.2216
   82ST     H0Z 1965   1.358  -1.255   2.916 -0.5013  1.1517  0.7599
   82ST     C10 1966   1.224  -1.125   2.796 -0.7899  0.2548  0.0034
   82ST     H11 1967   1.305  -1.093   2.730  0.2540 -0.3013  1.0070
   82ST     H12 1968   1.138  -1.138   2.730 -0.8981 -0.0232  0.2025
   82ST     C13 1969   1.193  -1.021   2.917  0.4743  0.0619 -0.0152
   82ST     H14 1970   1.121  -1.067   2.984 -0.3921 -0.2268 -1.1244
   82ST     H15 1971   1.283  -1.011   2.977 -0.7140  0.4676  1.7227
   82ST     C16 1972   1.130  -0.888   2.870  0.1699 -0.1182  0.2538
   82ST     H17 1973   1.030  -0.898   2.829  0.4011 -2.5194  0.2087
   82ST     H18 1974   1.113  -0.824   2.956  0.1506  0.7372 -0.3821
   82ST     C19 1975   1.215  -0.797   2.769  0.3428  0.5992 -0.1243
   82ST     H1A 1976   1.240  -0.855   2.680 -0.6722  0.3663 -0.2618
   82ST     H1B 1977   1.154  -0.719   2.725 -0.4890 -1.1028 -2.0921
   82ST     C1C 1978   1.345  -0.735   2.844  1.0101  0.2949  0.7670
   82ST     H1D 1979   1.327  -0.657   2.918  0.3713  0.0229  0.9036
   82ST     H1E 1980   1.406  -0.816   2.886 -1.3042 -2.0773 -0.2737
   82ST     C1F 1981   1.431  -0.656   2.739 -0.0896  1.1718  0.0892
   82ST     H1G 1982   1.458  -0.717   2.653  1.1880  2.7544 -0.6588
   82ST     H1H 1983   1.367  -0.576   2.703 -3.6608 -1.4364  0.3698
   82ST     C1I 1984   1.570  -0.606   2.791  0.0581 -0.3632 -0.0294
   82ST     H1J 1985   1.614  -0.683   2.854  0.0759 -0.2124  0.1447
   82ST     H1K 1986   1.555  -0.541   2.878 -1.5628  0.5727 -0.9913
   82ST     C1M 1987   1.650  -0.530   2.688 -0.0070 -0.4616 -0.5758
   82ST     H1N 1988   1.602  -0.437   2.660  0.4501 -0.9972 -3.2488
   82ST     H1O 1989   1.661  -0.571   2.588 -3.3683 -0.3835 -1.0147
   82ST     C1P 1990   1.784  -0.480   2.742 -0.0982 -0.0555 -0.3022
   82ST     H1Q 1991   1.753  -0.423   2.829 -0.9669 -0.5120 -0.3036
   82ST     H1R 1992   1.854  -0.557   2.776  0.0714  0.9034  1.6004
   82ST     C1S 1993   1.857  -0.385   2.643 -0.4170  0.0059  0.3820
   82ST     H1T 1994   1.785  -0.309   2.612 -1.3134 -1.0451 -0.1186
   82ST     H1U 1995   1.908  -0.427   2.556  0.9081  3.6205 -0.7045
   82ST     H1V 1996   1.935  -0.332   2.698  0.0752  1.6729 -1.8392
   83LA     H00 1997   1.893  -1.933   3.179  0.1717 -2.3371 -1.7295
   83LA     C01 1998   1.943  -1.976   3.266 -1.0253  0.3045  0.3379
   83LA     H02 1999   2.024  -2.041   3.233 -1.6365 -0.5364  0.4704
   83LA     H03 2000   2.006  -1.901   3.314  0.1768 -2.1317  2.6606
   83LA     C04 2001   1.839  -2.051   3.350  0.3090  0.6329  0.6955
   83LA     C05 2002   1.707  -2.003   3.356  0.2198  0.2253 -0.6194
   83LA     H06 2003   1.650  -2.057   3.430  0.6376  0.5731 -0.0324
   83LA     H07 2004   1.659  -1.990   3.260  2.4866 -1.1463 -1.9860
   83LA     C08 2005   1.899  -2.102   3.480 -0.6280  0.0227 -0.7534
   83LA     O09 2006   1.842  -2.135   3.586  0.3177  0.2170  0.0356
   83LA     O0A 2007   2.032  -2.104   3.484 -0.0051  0.5044 -0.1790
   83LA     C0B 2008   2.098  -2.139   3.606  0.6691  0.2152  1.0798
   83LA     H0C 2009   2.205  -2.159   3.598  0.5350 -0.1415  0.0757
   83LA     H0D 2010   2.058  -2.229   3.653  0.2690 -0.4257 -0.4501
   83LA     C0E 2011   2.089  -2.030   3.724  0.3447 -0.2013  0.9048
   83LA     H0F 2012   1.989  -2.034   3.769  0.0145 -0.9865  0.1077
   83LA     H0G 2013   2.163  -2.053   3.801  1.6030  0.5939 -0.0640
   83LA     C0H 2014   2.135  -1.895   3.670  1.0124  0.3209  0.6417
   83LA     H0I 2015   2.242  -1.892   3.650  0.8955 -1.1045 -0.2691
   83LA     H0J 2016   2.088  -1.883   3.573  2.0599  2.3616  0.3429
   83LA     C0K 2017   2.104  -1.778   3.762  0.6522 -0.6056  0.2746
   83LA     H0M 2018   2.016  -1.802   3.823  0.0997  1.2205  0.2361
   83LA     H0N 2019   2.186  -1.774   3.834 -0.3046 -1.8889  1.4870
   83LA     C0O 2020   2.091  -1.641   3.699  0.5843 -0.0011  0.4924
   83LA     H0P 2021   2.189  -1.598   3.680  0.4614 -0.0738 -0.3340
   83LA     H0Q 2022   2.051  -1.650   3.598  1.5474 -0.6945  0.1641
   83LA     C0R 2023   1.997  -1.551   3.780  0.2248  0.7912  0.8510
   83LA     H0S 2024   1.896  -1.591   3.772 -0.2027  1.9676  0.1681
   83LA     H0T 2025   2.016  -1.562   3.887 -3.4745 -0.1313  1.4922
   83LA     C0U 2026   2.003  -1.405   3.733  0.2220  0.1282  0.2031
   83LA     H0V 2027   2.101  -1.359   3.746  1.3909 -2.7317  2.0615
   83LA     H0W 2028   1.996  -1.415   3.625  0.1367 -1.2899  0.3281
   83LA     C0X 2029   1.879  -1.333   3.787 -0.0932 -0.7834  0.1987
   83LA     H0Y 2030   1.787  -1.382   3.757 -0.4874  0.5155 -0.8005
   83LA     H0Z 2031   1.882  -1.328   3.896  1.9054 -1.0312  0.1727
   83LA     C10 2032   1.870  -1.192   3.733 -0.2765 -0.2785 -0.1300
   83LA     H11 2033   1.876  -1.194   3.625 -0.1580 -0.2129 -0.1255
   83LA     H12 2034   1.955  -1.134   3.770 -1.3315  1.9019 -1.0661
   83LA     C13 2035   1.733  -1.125   3.764  0.2789 -0.1288 -0.6471
   83LA     H14 2036   1.720  -1.114   3.872 -2.6035 -2.1193 -0.7221
   83LA     H15 2037   1.653  -1.190   3.728 -0.0750 -0.0050 -0.1095
   83LA     C16 2038   1.705  -0.988   3.699 -0.2694 -0.3206 -0.3708
   83LA     H17 2039   1.713  -0.996   3.591 -0.4161 -0.5161 -0.3683
   83LA     H18 2040   1.785  -0.918   3.720  1.2945 -1.4213 -2.4883
   83LA     C19 2041   1.568  -0.932   3.732  0.1725 -0.3585  0.1133
   83LA     H1A 2042   1.488  -0.996   3.693 -1.2029  1.1639  0.3635
   83LA     H1B 2043   1.553  -0.847   3.666 -4.1990 -1.6012 -0.6537
   83LA     H1C 2044   1.554  -0.902   3.836  0.4630  3.2196 -0.8240
   84ST     H00 2045   1.857  -1.862   3.521  0.3922  0.8094  0.3794
   84ST     C01 2046   1.755  -1.824   3.524  0.0157 -0.0781 -0.7057
   84ST     H02 2047   1.705  -1.875   3.606 -1.3817  0.8319 -0.9788
   84ST     H03 2048   1.770  -1.717   3.543 -3.2435  0.3796 -0.5006
   84ST     C04 2049   1.675  -1.847   3.395 -0.0155  0.2445 -0.5080
   84ST     C05 2050   1.537  -1.861   3.418 -0.0384  0.0635  0.7191
   84ST     H06 2051   1.484  -1.901   3.333  2.2138 -0.4048 -0.4994
   84ST     H07 2052   1.515  -1.913   3.511 -0.9828 -2.1137 -0.6831
   84ST     C08 2053   1.724  -1.769   3.277 -0.9457  0.0384  0.2064
   84ST     O09 2054   1.664  -1.763   3.171 -0.2126  0.2749  0.1065
   84ST     O0A 2055   1.817  -1.679   3.324  0.0508 -0.4127  0.0234
   84ST     C0B 2056   1.830  -1.552   3.260  0.5092 -0.2820 -0.1580
   84ST     H0C 2057   1.810  -1.550   3.152  1.7587 -1.1858 -0.4139
   84ST     H0D 2058   1.766  -1.478   3.308 -0.6951 -0.8442 -0.8709
   84ST     C0E 2059   1.972  -1.508   3.281 -0.3167 -1.0502  0.1837
   84ST     H0F 2060   2.000  -1.504   3.386  1.5894  0.7019 -0.3502
   84ST     H0G 2061   1.974  -1.405   3.246  3.4169 -0.8443  0.7874
   84ST     C0H 2062   2.073  -1.596   3.197 -0.2049  0.5224 -0.3262
   84ST     H0I 2063   2.052  -1.698   3.229  2.4825 -0.3184 -1.1206
   84ST     H0J 2064   2.170  -1.582   3.245 -0.6653  1.1202  0.4571
   84ST     C0K 2065   2.074  -1.556   3.043  0.1400  0.0426 -0.2391
   84ST     H0M 2066   1.980  -1.594   3.002 -0.1128 -0.7663  1.0642
   84ST     H0N 2067   2.076  -1.447   3.031  1.8618 -0.0358 -0.7293
   84ST     C0O 2068   2.195  -1.612   2.966 -0.2953  0.5351 -0.3817
   84ST     H0P 2069   2.280  -1.611   3.033 -0.2646  0.6898 -0.4230
   84ST     H0Q 2070   2.217  -1.562   2.872  1.8931  2.0782  0.9207
   84ST     C0R 2071   2.160  -1.762   2.922 -0.2394 -0.2736 -0.2159
   84ST     H0S 2072   2.061  -1.755   2.878 -0.3162  3.8508  0.3682
   84ST     H0T 2073   2.139  -1.820   3.011  0.7349 -0.0554  0.1636
   84ST     C0U 2074   2.275  -1.819   2.838 -0.1188 -0.1110 -0.3932
   84ST     H0V 2075   2.372  -1.795   2.880  0.1023  0.0142 -0.9702
   84ST     H0W 2076   2.273  -1.776   2.737 -0.6209  1.0342  0.0986
   84ST     C0X 2077   2.267  -1.977   2.834 -0.5862 -0.1096  0.5548
   84ST     H0Y 2078   2.363  -2.021   2.806  0.4384  0.5590  2.8752
   84ST     H0Z 2079   2.228  -2.013   2.929 -1.1807  0.3466  0.4863
   84ST     C10 2080   2.167  -2.014   2.725 -0.3435  0.1472 -0.3215
   84ST     H11 2081   2.076  -1.966   2.760  0.1238 -0.5222  1.8319
   84ST     H12 2082   2.179  -1.955   2.633  2.1073 -1.9594 -1.4480
   84ST     C13 2083   2.128  -2.158   2.723  0.6208 -0.9247  0.1122
   84ST     H14 2084   2.204  -2.214   2.668  1.1543  1.0560 -1.2326
   84ST     H15 2085   2.153  -2.191   2.824  0.6678 -0.6498  0.1911
   84ST     C16 2086   1.984  -2.188   2.675  0.0525  0.2970 -0.0287
   84ST     H17 2087   1.907  -2.123   2.717 -1.0560 -0.0136 -1.5287
   84ST     H18 2088   1.989  -2.165   2.568  1.3004 -0.7706 -0.2048
   84ST     C19 2089   1.953  -2.333   2.695 -0.2092 -0.6148  0.1876
   84ST     H1A 2090   1.993  -2.380   2.606  1.8356 -0.2123  0.8743
   84ST     H1B 2091   2.005  -2.372   2.783 -2.3017 -0.5027  1.5379
   84ST     C1C 2092   1.805  -2.358   2.704  0.8055 -0.1694  0.0918
   84ST     H1D 2093   1.791  -2.464   2.721 -1.4605  0.2853  1.2864
   84ST     H1E 2094   1.767  -2.314   2.797 -0.0598  1.1037 -0.8456
   84ST     C1F 2095   1.725  -2.328   2.577 -0.6172  0.2535  0.3436
   84ST     H1G 2096   1.717  -2.221   2.554 -2.3426 -0.4686 -2.7331
   84ST     H1H 2097   1.777  -2.385   2.500 -2.0689 -0.5334 -0.0649
   84ST     C1I 2098   1.587  -2.393   2.589 -0.6368 -0.1422 -0.1350
   84ST     H1J 2099   1.603  -2.494   2.624  1.3815 -0.6969 -2.5220
   84ST     H1K 2100   1.543  -2.408   2.491 -1.4090 -1.0224  0.3400
   84ST     C1M 2101   1.491  -2.306   2.667 -0.2865 -0.1456 -0.3331
   84ST     H1N 2102   1.467  -2.208   2.624  2.5008  0.7167 -0.0553
   84ST     H1O 2103   1.511  -2.288   2.772 -2.4470 -0.7303  0.1897
   84ST     C1P 2104   1.363  -2.377   2.679  0.4733 -0.1439 -0.3144
   84ST     H1Q 2105   1.314  -2.355   2.584  1.1696 -0.4029 -0.7306
   84ST     H1R 2106   1.374  -2.485   2.688 -1.4842 -0.1716  2.2982
   84ST     C1S 2107   1.278  -2.321   2.796 -0.6498  0.2896  0.1845
   84ST     H1T 2108   1.178  -2.364   2.782  0.5489 -1.8074 -2.4814
   84ST     H1U 2109   1.257  -2.216   2.780 -1.9552 -0.2915 -2.2558
   84ST     H1V 2110   1.311  -2.360   2.892 -0.1233 -1.6135 -0.7283
   85ST     H00 2111   1.504  -1.741   3.646 -2.8526  1.0360  1.7738
   85ST     C01 2112   1.497  -1.668   3.566  0.3785 -0.1583  0.3388
   85ST     H02 2113   1.412  -1.610   3.602  0.0822 -2.5511  3.7006
   85ST     H03 2114   1.593  -1.617   3.551  0.3894 -0.1739  0.3548
   85ST     C04 2115   1.444  -1.730   3.436 -0.1511  0.4660  0.1966
   85ST     C05 2116   1.442  -1.651   3.321  0.5032  0.0130  0.0183
   85ST     H06 2117   1.543  -1.615   3.306 -0.0859  1.2936 -0.8904
   85ST     H07 2118   1.382  -1.705   3.250 -0.5661  0.6299  0.4560
   85ST     C08 2119   1.322  -1.807   3.462  0.1951 -0.4854 -0.5273
   85ST     O09 2120   1.243  -1.850   3.374 -0.3103 -0.3583  0.5845
   85ST     O0A 2121   1.300  -1.829   3.595  0.7614  0.4475  0.5787
   85ST     C0B 2122   1.191  -1.914   3.632 -0.8315  0.0325 -0.0594
   85ST     H0C 2123   1.109  -1.849   3.603 -2.1552 -0.9317  1.4686
   85ST     H0D 2124   1.188  -1.997   3.561  0.7356  1.1810 -1.5367
   85ST     C0E 2125   1.209  -1.957   3.784  0.8062 -0.4932  0.7771
   85ST     H0F 2126   1.294  -2.023   3.799  1.1431 -0.5173 -1.2204
   85ST     H0G 2127   1.129  -2.029   3.802 -0.0969 -0.0609 -1.3515
   85ST     C0H 2128   1.193  -1.835   3.884  0.2396 -0.1864 -0.5105
   85ST     H0I 2129   1.094  -1.794   3.866 -0.2072 -1.6161 -1.3075
   85ST     H0J 2130   1.269  -1.760   3.861 -1.1029  2.1821  2.3519
   85ST     C0K 2131   1.202  -1.877   4.029 -0.8728 -0.0591  0.0306
   85ST     H0M 2132   1.124  -1.951   4.049 -1.0699 -0.2457 -1.3526
   85ST     H0N 2133   1.298  -1.919   4.057 -0.6673 -0.2761 -0.9963
   85ST     C0O 2134   1.170  -1.764   4.132  0.5263  0.4427  0.1788
   85ST     H0P 2135   1.073  -1.724   4.103  0.7012  0.3157 -0.5857
   85ST     H0Q 2136   1.242  -1.682   4.137  0.9146  0.0781  0.6583
   85ST     C0R 2137   1.160  -1.825   4.272  0.1950 -0.5825  0.0724
   85ST     H0S 2138   1.257  -1.857   4.309  1.1603  0.4638 -1.5246
   85ST     H0T 2139   1.104  -1.918   4.283  0.0670 -0.3168  1.7652
   85ST     C0U 2140   1.107  -1.714   4.364 -0.2684  0.0445  0.8397
   85ST     H0V 2141   1.161  -1.623   4.341  1.6590 -1.0186  1.0177
   85ST     H0W 2142   1.147  -1.742   4.462  0.1221  0.1744  0.7194
   85ST     C0X 2143   0.956  -1.690   4.370 -0.3968  0.7308 -0.5697
   85ST     H0Y 2144   0.913  -1.646   4.280 -1.2647 -0.0630 -0.5575
   85ST     H0Z 2145   0.904  -1.786   4.368 -1.1479  1.0081  2.8690
   85ST     C10 2146   0.914  -1.602   4.494  0.0407  0.8022  0.5465
   85ST     H11 2147   0.807  -1.583   4.503  0.0617  0.6281  1.2109
   85ST     H12 2148   0.948  -1.649   4.586  0.1108 -0.0464  0.1005
   85ST     C13 2149   0.979  -1.470   4.501  0.6933 -0.2455  0.5487
   85ST     H14 2150   1.087  -1.479   4.513  0.7286  1.3212  1.5488
   85ST     H15 2151   0.952  -1.419   4.408 -0.4525  0.3931  1.2231
   85ST     C16 2152   0.946  -1.396   4.625  0.7870 -0.5577 -0.7840
   85ST     H17 2153   0.848  -1.350   4.611  0.6335 -1.1062 -1.5735
   85ST     H18 2154   0.929  -1.461   4.710 -0.8056 -0.5386 -1.0665
   85ST     C19 2155   1.044  -1.273   4.658 -0.4815 -0.1795 -0.3992
   85ST     H1A 2156   1.032  -1.236   4.760 -1.2095  0.5632 -0.7441
   85ST     H1B 2157   1.145  -1.313   4.657 -1.1598 -1.9184 -0.3817
   85ST     C1C 2158   1.036  -1.158   4.550 -0.2370  0.5570 -0.5002
   85ST     H1D 2159   1.034  -1.206   4.452 -0.2131  0.4850 -0.4648
   85ST     H1E 2160   0.942  -1.104   4.558  1.2612  3.1558  0.3369
   85ST     C1F 2161   1.157  -1.066   4.546 -0.1312  0.3087 -0.4178
   85ST     H1G 2162   1.239  -1.119   4.498 -0.5117 -0.2991 -0.3893
   85ST     H1H 2163   1.137  -0.980   4.482 -0.2071 -0.2446 -1.1443
   85ST     C1I 2164   1.190  -1.001   4.679  0.6888  0.9945 -0.5099
   85ST     H1J 2165   1.212  -1.074   4.757 -0.9823  1.5209  0.4595
   85ST     H1K 2166   1.113  -0.934   4.717 -0.7357 -1.8976  1.9204
   85ST     C1M 2167   1.318  -0.909   4.674 -0.5761 -0.1189  0.0381
   85ST     H1N 2168   1.387  -0.938   4.595 -0.7214 -1.2786  0.3327
   85ST     H1O 2169   1.369  -0.914   4.770 -1.2639 -0.1772  0.4076
   85ST     C1P 2170   1.284  -0.765   4.649 -0.2372 -0.6441  0.1033
   85ST     H1Q 2171   1.205  -0.757   4.574 -1.0653  3.6623  1.3480
   85ST     H1R 2172   1.244  -0.720   4.739 -0.4887  1.8826 -1.2438
   85ST     C1S 2173   1.409  -0.685   4.610 -0.1485  0.0087  0.4160
   85ST     H1T 2174   1.379  -0.580   4.610  0.8406  0.3017 -0.7651
   85ST     H1U 2175   1.446  -0.703   4.509  1.3041 -0.9588  1.0997
   85ST     H1V 2176   1.486  -0.701   4.686 -1.1115 -0.7395  1.2435
   86EH     H00 2177   1.341  -1.389   3.145  0.5216 -1.3992 -3.8462
   86EH     C01 2178   1.363  -1.494   3.164  1.1786 -0.5324  0.7399
   86EH     H02 2179   1.282  -1.552   3.120  1.6903  0.2901 -1.3344
   86EH     H03 2180   1.452  -1.529   3.111  0.8947  0.9228 -0.7397
   86EH     C04 2181   1.366  -1.505   3.317  0.2689  0.2966  0.1042
   86EH     C05 2182   1.239  -1.525   3.376 -0.0660 -0.5439 -1.0091
   86EH     H06 2183   1.251  -1.522   3.484 -2.6335  0.3905 -0.7033
   86EH     H07 2184   1.185  -1.605   3.328  0.5670 -1.6235  0.0262
   86EH     C08 2185   1.455  -1.410   3.385 -0.2238 -0.1424  0.3715
   86EH     O09 2186   1.463  -1.371   3.506  0.1169 -0.0260 -1.0835
   86EH     O0A 2187   1.537  -1.352   3.291  0.1532 -0.0415 -0.4092
   86EH     C0B 2188   1.580  -1.218   3.312 -0.7310 -0.9739 -0.5657
   86EH     H0C 2189   1.630  -1.224   3.409 -0.8210 -0.6673 -0.4978
   86EH     H0D 2190   1.494  -1.151   3.309  1.5857  2.1752 -0.4256
   86EH     C0E 2191   1.682  -1.177   3.210  0.4787  0.6387 -0.6153
   86EH     H0F 2192   1.740  -1.270   3.214 -0.4489  0.0262 -1.1069
   86EH     C0G 2193   1.620  -1.182   3.061 -0.3156  0.3641  0.3324
   86EH     H0H 2194   1.527  -1.238   3.055 -0.4583  0.5719  0.5946
   86EH     H0I 2195   1.678  -1.243   2.992 -1.2200 -0.6262  0.4403
   86EH     C0J 2196   1.597  -1.042   3.003 -0.1482 -0.8231 -0.4916
   86EH     H0K 2197   1.693  -0.991   3.008 -0.5312 -0.2800  2.9100
   86EH     H0M 2198   1.515  -0.998   3.059 -0.0350  0.4630 -1.3301
   86EH     H0N 2199   1.566  -1.048   2.899  1.2585 -0.5581 -0.9335
   86EH     C0O 2200   1.775  -1.063   3.250 -0.0497 -0.3437  0.0046
   86EH     H0P 2201   1.717  -0.971   3.241 -0.5918 -0.6095  0.6892
   86EH     H0Q 2202   1.791  -1.085   3.356  1.2746 -2.8594 -0.6730
   86EH     C0R 2203   1.911  -1.065   3.167 -0.3257 -0.1714 -0.2951
   86EH     H0S 2204   1.896  -1.023   3.068 -0.2062 -3.2722 -1.6788
   86EH     H0T 2205   1.956  -1.164   3.163  0.9911  0.4823 -2.1031
   86EH     C0U 2206   2.013  -0.966   3.220  0.4027  0.0601  0.2155
   86EH     H0V 2207   2.104  -0.968   3.161 -0.2306  2.5883 -0.9585
   86EH     H0W 2208   1.975  -0.864   3.229 -3.8575 -1.4626  0.7218
   86EH     C0X 2209   2.055  -1.004   3.363  1.0541  0.4564  0.1353
   86EH     H0Y 2210   2.078  -1.111   3.364 -1.9842 -0.2475  3.1907
   86EH     H0Z 2211   1.985  -0.986   3.444 -1.1173  0.0310 -1.5960
   86EH     H10 2212   2.149  -0.955   3.390  1.1233 -0.3542  1.3885
   87EH     H00 2213   1.052  -1.427   3.574  0.3183  0.8909 -0.1219
   87EH     C01 2214   1.020  -1.457   3.474 -0.0345 -0.5467  0.4149
   87EH     H02 2215   1.001  -1.565   3.478 -0.6600 -0.6121 -2.6568
   87EH     H03 2216   0.923  -1.409   3.464 -0.0700 -0.5476  0.7617
   87EH     C04 2217   1.121  -1.408   3.373  0.7116  0.1592  0.7888
   87EH     C05 2218   1.184  -1.288   3.405  0.0278  0.0771 -0.0147
   87EH     H06 2219   1.219  -1.306   3.505 -2.9540  1.1055  1.2426
   87EH     H07 2220   1.250  -1.253   3.327 -1.0010 -0.8440 -1.3175
   87EH     C08 2221   1.071  -1.425   3.236 -0.0571 -0.0930  0.0648
   87EH     O09 2222   1.089  -1.345   3.141  0.0689  0.2750  0.0582
   87EH     O0A 2223   0.982  -1.525   3.238  0.3407 -0.0374 -0.3930
   87EH     C0B 2224   0.907  -1.558   3.119  0.0169 -0.1748 -0.1533
   87EH     H0C 2225   0.972  -1.541   3.033  0.4149 -1.5346 -0.1234
   87EH     H0D 2226   0.826  -1.486   3.110  0.8100  0.4303 -2.6428
   87EH     C0E 2227   0.864  -1.707   3.137  0.0444  0.2818 -0.7561
   87EH     H0F 2228   0.817  -1.714   3.235 -0.7415  0.7661 -1.0933
   87EH     C0G 2229   0.766  -1.751   3.022  0.7502 -0.2386  0.4804
   87EH     H0H 2230   0.831  -1.755   2.935 -1.3747  2.1959 -1.2618
   87EH     H0I 2231   0.696  -1.676   2.987 -0.2900 -0.6766  1.5591
   87EH     C0J 2232   0.694  -1.886   3.035 -0.4986 -0.0473  0.0146
   87EH     H0K 2233   0.649  -1.914   2.940 -0.6513  1.4708 -0.3600
   87EH     H0M 2234   0.624  -1.876   3.118  0.0592 -0.5211  0.5491
   87EH     H0N 2235   0.761  -1.968   3.062 -0.2286  0.1995  0.0900
   87EH     C0O 2236   0.994  -1.799   3.137  0.2729 -0.0765 -0.5515
   87EH     H0P 2237   1.039  -1.778   3.234  0.5832 -1.1807 -0.4507
   87EH     H0Q 2238   0.961  -1.902   3.148 -0.1952  0.1520  0.2333
   87EH     C0R 2239   1.097  -1.791   3.022  0.1225  0.0598 -0.3177
   87EH     H0S 2240   1.155  -1.699   3.029  1.2085 -0.5610 -1.0436
   87EH     H0T 2241   1.040  -1.798   2.930 -2.5830 -0.1705  1.3242
   87EH     C0U 2242   1.200  -1.905   3.025 -0.4685 -0.4308  0.1544
   87EH     H0V 2243   1.289  -1.865   2.977 -0.0119 -0.6283  0.8399
   87EH     H0W 2244   1.215  -1.924   3.131 -4.0226 -1.6679  0.5207
   87EH     C0X 2245   1.148  -2.035   2.965 -0.0812 -0.3095 -0.3413
   87EH     H0Y 2246   1.051  -2.059   3.009  0.3730  0.7371  1.2583
   87EH     H0Z 2247   1.211  -2.120   2.990  0.0640  0.5180  2.2269
   87EH     H10 2248   1.153  -2.032   2.856  1.2963 -0.1060 -0.2840
   88EH     H00 2249   0.910  -1.082   3.387  0.3999 -1.6566  1.2470
   88EH     C01 2250   0.988  -1.140   3.338  0.6758 -0.1161 -0.1681
   88EH     H02 2251   0.938  -1.236   3.320  0.5977 -0.6130  2.4640
   88EH     H03 2252   1.010  -1.100   3.239 -0.9777 -0.1077 -0.5487
   88EH     C04 2253   1.107  -1.146   3.429 -0.3552  0.7662  0.0767
   88EH     C05 2254   1.208  -1.054   3.405  0.3368 -0.7756  0.2095
   88EH     H06 2255   1.230  -1.057   3.299 -0.3837 -0.1780  0.0385
   88EH     H07 2256   1.279  -1.070   3.484  1.1302  1.4155  0.0009
   88EH     C08 2257   1.060  -1.161   3.576  0.2934 -0.6026  0.4893
   88EH     O09 2258   0.942  -1.175   3.613 -0.0534  0.2960 -0.5150
   88EH     O0A 2259   1.159  -1.179   3.674 -0.0942 -0.6671  0.2401
   88EH     C0B 2260   1.116  -1.185   3.810 -0.2951 -0.1742 -0.3771
   88EH     H0C 2261   1.037  -1.259   3.820  0.2070 -0.8475 -1.2849
   88EH     H0D 2262   1.078  -1.085   3.832 -1.1998 -0.8578  1.2016
   88EH     C0E 2263   1.225  -1.230   3.911 -1.0744 -0.4190  0.0177
   88EH     H0F 2264   1.292  -1.144   3.909 -1.2144 -0.3136 -0.1827
   88EH     C0G 2265   1.180  -1.245   4.058  0.0734 -0.0506  0.4965
   88EH     H0H 2266   1.110  -1.164   4.079  2.1329  1.7526  0.5622
   88EH     H0I 2267   1.265  -1.245   4.125  0.1937 -1.9523  0.3627
   88EH     C0J 2268   1.103  -1.378   4.091 -0.2853  0.1498 -0.2960
   88EH     H0K 2269   1.177  -1.458   4.084  1.8341  2.2304 -2.2820
   88EH     H0M 2270   1.020  -1.380   4.021 -2.1863  0.6751  1.8570
   88EH     H0N 2271   1.064  -1.384   4.193 -0.4285  2.2520 -0.2026
   88EH     C0O 2272   1.305  -1.354   3.862 -0.3549  0.0332  0.8566
   88EH     H0P 2273   1.245  -1.443   3.879  1.0190 -0.8230  1.2511
   88EH     H0Q 2274   1.330  -1.346   3.756 -0.1562  2.5285  1.0603
   88EH     C0R 2275   1.434  -1.390   3.941 -0.0414 -0.6270 -0.9010
   88EH     H0S 2276   1.414  -1.394   4.048  2.2722 -0.9123 -0.4602
   88EH     H0T 2277   1.507  -1.309   3.934 -0.4675 -0.3461 -2.4200
   88EH     C0U 2278   1.497  -1.509   3.867 -0.2164  0.0560 -0.0556
   88EH     H0V 2279   1.417  -1.582   3.854  0.8790 -1.8857  3.3628
   88EH     H0W 2280   1.529  -1.481   3.766  1.8481 -0.1456  0.5126
   88EH     C0X 2281   1.614  -1.574   3.945  0.0179 -0.5442  0.9290
   88EH     H0Y 2282   1.701  -1.509   3.953  0.5832 -1.2705  0.7317
   88EH     H0Z 2283   1.643  -1.669   3.900 -1.5035  0.7211 -2.9055
   88EH     H10 2284   1.583  -1.593   4.048 -1.1939 -1.0744  0.4822
   89LA     H00 2285   0.983  -0.887   3.340 -0.9223  0.0232  0.0443
   89LA     C01 2286   1.085  -0.854   3.322 -0.9212  0.2483  0.4522
   89LA     H02 2287   1.117  -0.881   3.221 -0.7850  0.5493  0.4128
   89LA     H03 2288   1.069  -0.749   3.345 -2.2060 -0.2786  2.0836
   89LA     C04 2289   1.185  -0.892   3.423 -0.3943 -0.2599 -0.2807
   89LA     C05 2290   1.317  -0.853   3.392  0.4922  0.4015 -0.1010
   89LA     H06 2291   1.380  -0.881   3.475  0.2139 -0.2140 -0.0970
   89LA     H07 2292   1.356  -0.870   3.293  2.3730  1.7078  0.3827
   89LA     C08 2293   1.141  -0.881   3.568  0.0350 -0.0988  0.9037
   89LA     O09 2294   1.222  -0.880   3.657 -0.4803  0.3206  0.2309
   89LA     O0A 2295   1.004  -0.856   3.576 -0.2469  0.1885  0.7993
   89LA     C0B 2296   0.945  -0.845   3.701  0.0360  0.1695  0.3093
   89LA     H0C 2297   1.011  -0.820   3.784  1.6441 -0.2758 -0.7988
   89LA     H0D 2298   0.897  -0.935   3.739  1.0272 -0.1437  0.8298
   89LA     C0E 2299   0.837  -0.738   3.699 -0.2339 -0.1654  0.8732
   89LA     H0F 2300   0.779  -0.743   3.607 -0.1659  2.4130  0.6374
   89LA     H0G 2301   0.772  -0.752   3.786 -0.9482  0.0292  0.3718
   89LA     C0H 2302   0.896  -0.602   3.717 -0.0663  1.0419  1.3710
   89LA     H0I 2303   0.997  -0.603   3.757 -0.3776 -0.8485  2.1868
   89LA     H0J 2304   0.908  -0.563   3.616  1.5157 -2.8565 -0.0505
   89LA     C0K 2305   0.811  -0.514   3.811 -0.6097 -0.9416 -0.4681
   89LA     H0M 2306   0.705  -0.511   3.783 -0.8790  1.3934  0.7155
   89LA     H0N 2307   0.813  -0.549   3.914 -1.6169 -0.1530 -0.1730
   89LA     C0O 2308   0.861  -0.370   3.807 -0.0629  0.4092 -0.0353
   89LA     H0P 2309   0.963  -0.354   3.840 -0.0483 -1.0170  0.6147
   89LA     H0Q 2310   0.865  -0.334   3.704  0.7341 -0.1344 -0.1951
   89LA     C0R 2311   0.766  -0.264   3.885 -0.1443  0.3546 -0.7225
   89LA     H0S 2312   0.789  -0.163   3.853 -0.9083  0.9244  0.4958
   89LA     H0T 2313   0.661  -0.278   3.857 -0.3214 -0.2854  0.2256
   89LA     C0U 2314   0.792  -0.274   4.037  0.1952  0.2451  0.1035
   89LA     H0V 2315   0.785  -0.378   4.068  0.7550  0.0805 -0.3152
   89LA     H0W 2316   0.890  -0.237   4.067 -0.0348  1.8005 -0.9886
   89LA     C0X 2317   0.691  -0.194   4.115  0.4500 -0.4541 -0.0117
   89LA     H0Y 2318   0.713  -0.089   4.097 -1.5721  0.1481  0.9110
   89LA     H0Z 2319   0.590  -0.210   4.077  0.6115 -0.8406 -0.2777
   89LA     C10 2320   0.689  -0.228   4.266  0.2750 -0.0730  0.1966
   89LA     H11 2321   0.792  -0.213   4.301 -0.1988  0.0207  1.6147
   89LA     H12 2322   0.650  -0.330   4.273 -2.8938  0.9896 -1.0501
   89LA     C13 2323   0.605  -0.141   4.353 -0.2626 -0.6134  0.1054
   89LA     H14 2324   0.613  -0.180   4.454  0.2915  1.8374  1.0219
   89LA     H15 2325   0.500  -0.160   4.329 -1.2877 -0.3003  4.0732
   89LA     C16 2326   0.625   0.012   4.331  0.1313  0.2090 -0.7741
   89LA     H17 2327   0.567   0.046   4.245 -1.5937  0.4434  0.4670
   89LA     H18 2328   0.728   0.018   4.295  0.8044 -0.6186  0.9871
   89LA     C19 2329   0.585   0.105   4.455  0.0860  0.2609  0.4825
   89LA     H1A 2330   0.644   0.083   4.544 -2.0738  1.9309  2.4103
   89LA     H1B 2331   0.483   0.090   4.491  0.5305  1.8741  2.5068
   89LA     H1C 2332   0.591   0.212   4.438 -0.7945  0.4540  1.2990
   90EH     H00 2333   1.562  -0.769   3.487 -0.9673 -0.3177  0.0951
   90EH     C01 2334   1.520  -0.727   3.395 -0.1548 -0.0337 -0.1475
   90EH     H02 2335   1.589  -0.644   3.377  1.7912 -1.4241  0.7478
   90EH     H03 2336   1.541  -0.800   3.317  0.2814 -1.7947  1.5661
   90EH     C04 2337   1.374  -0.695   3.400  0.6100 -0.0775 -0.1146
   90EH     C05 2338   1.323  -0.648   3.521  0.3590 -0.2076 -0.4992
   90EH     H06 2339   1.217  -0.628   3.518  0.2029 -1.0871 -1.0874
   90EH     H07 2340   1.357  -0.703   3.607 -1.1013 -2.0814 -1.1018
   90EH     C08 2341   1.324  -0.641   3.270 -0.0803  0.6144  0.1324
   90EH     O09 2342   1.391  -0.646   3.170  0.0623  0.6231  0.6739
   90EH     O0A 2343   1.209  -0.585   3.278  0.8204  0.5858 -0.6651
   90EH     C0B 2344   1.142  -0.555   3.146 -0.4986 -0.2277 -0.3015
   90EH     H0C 2345   1.124  -0.646   3.088 -0.4858  0.0804 -0.7870
   90EH     H0D 2346   1.200  -0.487   3.084 -0.2645 -0.4540 -0.3325
   90EH     C0E 2347   1.009  -0.489   3.184  0.0334  0.3921  0.0273
   90EH     H0F 2348   0.955  -0.555   3.252  1.1482 -0.5943 -0.0295
   90EH     C0G 2349   1.032  -0.348   3.244  0.3265  0.1955  0.5256
   90EH     H0H 2350   1.060  -0.272   3.171  0.7832 -0.5477 -0.0707
   90EH     H0I 2351   1.113  -0.356   3.317 -0.6391 -2.2641  1.3718
   90EH     C0J 2352   0.912  -0.309   3.330 -0.4086 -0.3045 -0.8559
   90EH     H0K 2353   0.831  -0.266   3.271 -0.1125  1.0693 -0.2725
   90EH     H0M 2354   0.940  -0.226   3.395 -1.4442 -0.4348 -0.2458
   90EH     H0N 2355   0.884  -0.389   3.398 -1.0502  0.7529  0.1455
   90EH     C0O 2356   0.903  -0.474   3.071  0.3398  0.1728 -0.1973
   90EH     H0P 2357   0.814  -0.426   3.111  0.0591  0.4208 -1.1089
   90EH     H0Q 2358   0.952  -0.414   2.994  0.9178  0.1399  0.1418
   90EH     C0R 2359   0.865  -0.608   3.011  0.4511  0.0960 -0.3009
   90EH     H0S 2360   0.824  -0.673   3.089  0.7291  0.8220  0.4607
   90EH     H0T 2361   0.955  -0.647   2.964  1.1719 -0.2967  1.3859
   90EH     C0U 2362   0.755  -0.587   2.908 -0.1070  0.0212 -0.2057
   90EH     H0V 2363   0.677  -0.526   2.953  0.3158  1.1798 -1.0299
   90EH     H0W 2364   0.789  -0.525   2.825  2.5024  0.4281  1.1090
   90EH     C0X 2365   0.716  -0.720   2.848 -0.4131 -0.4605  0.5808
   90EH     H0Y 2366   0.655  -0.780   2.915  0.8899  0.1365  2.3449
   90EH     H0Z 2367   0.804  -0.779   2.819 -0.1172  0.6349 -0.8185
   90EH     H10 2368   0.667  -0.714   2.751  2.0897  1.2077 -0.6531
   91EH     H00 2369   1.542  -0.461   3.707 -2.2374  0.2772 -0.3061
   91EH     C01 2370   1.532  -0.531   3.625 -0.9236 -0.2891  0.0051
   91EH     H02 2371   1.608  -0.500   3.553 -1.6925 -0.1462 -0.7475
   91EH     H03 2372   1.561  -0.626   3.671  2.9265 -1.0011 -3.5012
   91EH     C04 2373   1.384  -0.504   3.578  0.9960  0.2186 -0.0186
   91EH     C05 2374   1.365  -0.412   3.476  0.3729  0.4800  0.2995
   91EH     H06 2375   1.258  -0.399   3.471  0.1421 -1.5778 -0.5922
   91EH     H07 2376   1.427  -0.427   3.389  2.8861  2.9346  1.5666
   91EH     C08 2377   1.292  -0.497   3.696 -0.3196 -0.2065 -0.7556
   91EH     O09 2378   1.178  -0.446   3.689  0.4079 -0.1803  0.1735
   91EH     O0A 2379   1.345  -0.545   3.802 -0.2494 -0.4450 -0.0070
   91EH     C0B 2380   1.260  -0.581   3.913 -0.1396 -0.0276 -0.1979
   91EH     H0C 2381   1.196  -0.666   3.891 -0.5056  0.1098  0.3296
   91EH     H0D 2382   1.184  -0.505   3.936 -0.7876 -0.6375 -0.3093
   91EH     C0E 2383   1.337  -0.614   4.040  0.3071 -0.2561 -0.3933
   91EH     H0F 2384   1.393  -0.522   4.055  0.3473 -0.0806 -1.5811
   91EH     C0G 2385   1.433  -0.728   4.013  0.1672 -0.3689 -0.0699
   91EH     H0H 2386   1.474  -0.715   3.913 -1.0936 -3.5572 -1.0423
   91EH     H0I 2387   1.380  -0.823   4.017  2.0298 -1.5174 -1.9996
   91EH     C0J 2388   1.549  -0.742   4.105  0.0776  0.0060 -0.0907
   91EH     H0K 2389   1.631  -0.805   4.070 -0.5431 -1.7077  1.4798
   91EH     H0M 2390   1.599  -0.648   4.129 -1.1863  0.4590  0.8059
   91EH     H0N 2391   1.505  -0.782   4.196  0.4710 -0.2466 -0.0117
   91EH     C0O 2392   1.261  -0.627   4.167  0.1189  0.2998 -0.6961
   91EH     H0P 2393   1.192  -0.711   4.161 -0.9074  1.1624 -1.0740
   91EH     H0Q 2394   1.320  -0.668   4.250  0.4375 -0.4428 -1.2860
   91EH     C0R 2395   1.184  -0.504   4.219 -0.0232 -0.3304  0.5608
   91EH     H0S 2396   1.117  -0.465   4.142 -1.5319 -1.1257  1.4394
   91EH     H0T 2397   1.260  -0.429   4.242  0.8158 -1.0428  0.1474
   91EH     C0U 2398   1.093  -0.542   4.340 -0.3040 -0.1963  0.2993
   91EH     H0V 2399   1.026  -0.622   4.307 -1.2624  0.6584  0.1569
   91EH     H0W 2400   1.169  -0.579   4.409 -1.5900  0.1937  1.9755
   91EH     C0X 2401   1.023  -0.418   4.396 -0.8135  0.0135  0.2816
   91EH     H0Y 2402   1.086  -0.336   4.429 -0.5708  1.3011 -3.1948
   91EH     H0Z 2403   0.944  -0.433   4.470  0.2297  0.4988  1.5254
   91EH     H10 2404   0.973  -0.374   4.310 -0.5478 -0.2749 -0.0227
   92ST     H00 2405   1.617  -0.325   3.454  0.8283 -0.4356  1.1965
   92ST     C01 2406   1.563  -0.248   3.508 -0.1296 -0.0913 -0.2221
   92ST     H02 2407   1.586  -0.269   3.612  1.4959 -1.9894 -0.9425
   92ST     H03 2408   1.609  -0.152   3.484  1.2202 -0.6848 -0.0535
   92ST     C04 2409   1.405  -0.251   3.496 -0.6487 -0.1054  1.3863
   92ST     C05 2410   1.339  -0.209   3.603 -0.5859 -0.7232  0.3025
   92ST     H06 2411   1.368  -0.258   3.695  1.2140 -0.3836 -0.0668
   92ST     H07 2412   1.240  -0.220   3.562 -0.8780 -0.8380  1.0270
   92ST     C08 2413   1.360  -0.208   3.359 -0.4382  0.2957  0.1945
   92ST     O09 2414   1.250  -0.172   3.331  0.8991  0.5339 -0.4378
   92ST     O0A 2415   1.462  -0.209   3.271 -0.5019  0.4516 -0.0844
   92ST     C0B 2416   1.448  -0.153   3.143 -0.1377 -0.0283  0.1531
   92ST     H0C 2417   1.355  -0.098   3.129  1.8318  3.2200 -0.9050
   92ST     H0D 2418   1.528  -0.081   3.126 -0.5187 -0.1686 -2.6304
   92ST     C0E 2419   1.465  -0.257   3.037  0.4501 -0.0492  0.2395
   92ST     H0F 2420   1.388  -0.335   3.037 -0.1023  0.4961  0.7941
   92ST     H0G 2421   1.556  -0.315   3.057  1.1856  1.3945  1.1848
   92ST     C0H 2422   1.462  -0.206   2.891 -0.0107 -0.0371 -0.1870
   92ST     H0I 2423   1.506  -0.284   2.829  0.3835 -1.3292  1.6580
   92ST     H0J 2424   1.541  -0.131   2.881  0.1318  0.1637  2.0245
   92ST     C0K 2425   1.333  -0.172   2.825 -0.2557  0.0782 -0.3493
   92ST     H0M 2426   1.267  -0.105   2.880 -1.7001 -0.9531 -0.7823
   92ST     H0N 2427   1.339  -0.138   2.721  0.6031 -0.3790 -0.4584
   92ST     C0O 2428   1.238  -0.298   2.820 -0.0795  0.6171 -0.4369
   92ST     H0P 2429   1.159  -0.300   2.894 -0.6089 -0.3016 -1.0169
   92ST     H0Q 2430   1.295  -0.391   2.826  1.5369  1.6182 -0.1025
   92ST     C0R 2431   1.159  -0.308   2.688 -0.6428 -0.7685  0.1876
   92ST     H0S 2432   1.227  -0.325   2.605 -1.2082  2.4134 -0.9985
   92ST     H0T 2433   1.105  -0.214   2.678 -0.6081 -0.6823  0.8056
   92ST     C0U 2434   1.044  -0.410   2.687 -0.6847  0.4903 -0.5549
   92ST     H0V 2435   0.976  -0.407   2.772 -0.2475  3.4227 -0.2795
   92ST     H0W 2436   1.091  -0.508   2.695  0.0732  0.8221 -0.9255
   92ST     C0X 2437   0.969  -0.412   2.548 -0.4132  0.7210  0.5977
   92ST     H0Y 2438   0.889  -0.339   2.546 -0.4049  0.7073 -0.1528
   92ST     H0Z 2439   1.032  -0.388   2.462  0.5775 -2.7939  0.2431
   92ST     C10 2440   0.907  -0.556   2.528 -0.1471  0.0570  0.7500
   92ST     H11 2441   0.987  -0.630   2.537 -0.4243 -0.1633  1.4792
   92ST     H12 2442   0.831  -0.566   2.606  1.1311  0.4112  2.0563
   92ST     C13 2443   0.840  -0.572   2.396 -0.0431  0.2007 -0.0197
   92ST     H14 2444   0.902  -0.542   2.311  0.5067 -0.1747  0.2403
   92ST     H15 2445   0.760  -0.501   2.380  0.9286  0.8512 -2.2032
   92ST     C16 2446   0.781  -0.716   2.371 -0.6225 -0.8180  0.2783
   92ST     H17 2447   0.713  -0.734   2.454 -0.2725  0.4630  0.8459
   92ST     H18 2448   0.727  -0.710   2.276 -0.3545 -1.5713  0.0708
   92ST     C19 2449   0.889  -0.822   2.337 -0.5110 -0.6226 -0.2672
   92ST     H1A 2450   0.937  -0.798   2.243  1.5148  0.5766  1.0265
   92ST     H1B 2451   0.959  -0.811   2.420  1.3057 -2.5335 -1.4969
   92ST     C1C 2452   0.839  -0.961   2.347  0.1159 -0.2920 -0.4332
   92ST     H1D 2453   0.807  -0.983   2.449 -0.0104  0.1636 -0.3744
   92ST     H1E 2454   0.746  -0.961   2.289 -0.1829 -0.2274  0.0437
   92ST     C1F 2455   0.935  -1.069   2.295 -0.6012 -0.1304  0.0105
   92ST     H1G 2456   0.896  -1.169   2.316 -0.1674 -0.2417  0.3017
   92ST     H1H 2457   0.923  -1.072   2.187 -1.5018 -0.2254  0.1042
   92ST     C1I 2458   1.083  -1.052   2.331  0.5361 -0.2223 -0.6402
   92ST     H1J 2459   1.094  -1.061   2.439 -0.2673  0.3775 -0.5044
   92ST     H1K 2460   1.119  -0.953   2.301  2.0048 -0.4096  0.4590
   92ST     C1M 2461   1.178  -1.136   2.247 -0.6201  0.0723  0.0734
   92ST     H1N 2462   1.174  -1.101   2.143 -0.7819  0.4300  0.2010
   92ST     H1O 2463   1.153  -1.242   2.248 -0.6948  0.0985  3.0154
   92ST     C1P 2464   1.321  -1.123   2.292 -0.3775  0.0199  0.2474
   92ST     H1Q 2465   1.337  -1.016   2.307 -0.3647  0.2633 -1.3375
   92ST     H1R 2466   1.333  -1.164   2.392  1.4636  1.5043  0.6532
   92ST     C1S 2467   1.423  -1.180   2.186 -0.1166  0.1473 -1.2588
   92ST     H1T 2468   1.527  -1.160   2.213 -0.3930 -0.9903  0.8030
   92ST     H1U 2469   1.396  -1.131   2.093 -3.4101 -0.0555 -0.4794
   92ST     H1V 2470   1.402  -1.287   2.173 -0.6749  0.0955 -0.0853
   93EH     H00 2471   1.214  -0.003   3.492 -0.3825  1.0026  0.5959
   93EH     C01 2472   1.310   0.020   3.540  0.0412  0.0417  0.2181
   93EH     H02 2473   1.392   0.008   3.469 -0.6955 -3.4697 -0.1387
   93EH     H03 2474   1.304   0.127   3.559  0.5780 -0.0519  0.9243
   93EH     C04 2475   1.337  -0.058   3.665 -0.1815 -0.4903 -0.0310
   93EH     C05 2476   1.236  -0.074   3.754  0.2677 -0.1634  0.4623
   93EH     H06 2477   1.261  -0.135   3.840 -3.1225  0.9728  2.3895
   93EH     H07 2478   1.145  -0.108   3.705 -0.5395  1.6754  0.6407
   93EH     C08 2479   1.471  -0.044   3.724  0.2063 -0.4459  0.6217
   93EH     O09 2480   1.556   0.031   3.678 -0.0869  0.3039  0.1033
   93EH     O0A 2481   1.500  -0.128   3.823  0.5269  0.3990  0.3263
   93EH     C0B 2482   1.632  -0.147   3.877  0.2421 -0.2177 -0.2652
   93EH     H0C 2483   1.669  -0.052   3.915  1.3532 -1.1628  1.1048
   93EH     H0D 2484   1.687  -0.183   3.790  0.1039 -1.6073  0.1990
   93EH     C0E 2485   1.622  -0.252   3.998  0.4788  0.3326  0.0427
   93EH     H0F 2486   1.541  -0.320   3.969  0.4406  1.0215 -1.5013
   93EH     C0G 2487   1.754  -0.326   4.014 -0.6022  0.0630  0.3070
   93EH     H0H 2488   1.789  -0.364   3.918  1.4065 -1.4176  1.5788
   93EH     H0I 2489   1.730  -0.407   4.083  1.8802  1.1055  2.4964
   93EH     C0J 2490   1.852  -0.227   4.074 -0.2930  0.2238  0.7124
   93EH     H0K 2491   1.841  -0.214   4.182  0.9092  1.6089  0.6867
   93EH     H0M 2492   1.953  -0.266   4.069  0.4726  2.2604 -0.3666
   93EH     H0N 2493   1.868  -0.136   4.016  0.4850 -0.8879 -0.8531
   93EH     C0O 2494   1.578  -0.188   4.133  0.2457  0.1649 -0.1040
   93EH     H0P 2495   1.604  -0.264   4.206  1.6683 -0.3270 -1.0892
   93EH     H0Q 2496   1.645  -0.103   4.150 -1.8912  1.7026  0.8645
   93EH     C0R 2497   1.440  -0.130   4.122 -0.4284 -0.2488 -0.2758
   93EH     H0S 2498   1.378  -0.162   4.038 -0.3251  0.1729 -0.5116
   93EH     H0T 2499   1.455  -0.029   4.084  0.5961 -0.9301 -1.6855
   93EH     C0U 2500   1.360  -0.144   4.252 -0.2139  0.3107  0.2683
   93EH     H0V 2501   1.265  -0.184   4.216 -0.0245  0.2130 -0.1341
   93EH     H0W 2502   1.416  -0.218   4.309  0.2938  0.3550 -0.1668
   93EH     C0X 2503   1.339  -0.010   4.318 -0.6113 -0.0361 -0.5192
   93EH     H0Y 2504   1.302   0.068   4.252 -1.7090 -0.2567 -0.1827
   93EH     H0Z 2505   1.431   0.026   4.363  1.4222 -2.9154 -2.1462
   93EH     H10 2506   1.269  -0.016   4.402  0.4986  1.8993  0.5626
   94ST     H00 2507   1.163   0.017   4.054 -0.3235 -1.6456  0.8435
   94ST     C01 2508   1.115  -0.023   3.965  0.4304  0.0002 -0.3227
   94ST     H02 2509   1.123  -0.132   3.971 -1.2461 -0.3748 -3.4666
   94ST     H03 2510   1.008  -0.009   3.979  0.0914  0.7599 -3.3012
   94ST     C04 2511   1.159   0.050   3.830  0.1433 -0.3422  0.0259
   94ST     C05 2512   1.256   0.150   3.843  0.2351  0.2316  0.8271
   94ST     H06 2513   1.345   0.113   3.892  1.8583 -1.0399 -2.8243
   94ST     H07 2514   1.268   0.193   3.744  0.9100 -1.4844  0.1403
   94ST     C08 2515   1.040   0.083   3.739 -0.1666  0.2001  0.1623
   94ST     O09 2516   0.930   0.029   3.753  0.6598  0.0690  0.1036
   94ST     O0A 2517   1.063   0.171   3.646 -0.3378  0.8625 -0.4212
   94ST     C0B 2518   0.955   0.228   3.574 -0.3722  0.1671 -0.7742
   94ST     H0C 2519   0.904   0.151   3.516 -0.5787 -0.0932 -0.2432
   94ST     H0D 2520   0.876   0.260   3.642  0.1318 -0.9450  0.3631
   94ST     C0E 2521   1.001   0.351   3.493  0.4265 -0.5987  0.0208
   94ST     H0F 2522   1.034   0.421   3.570 -1.0849  1.5165 -1.2288
   94ST     H0G 2523   0.908   0.386   3.447  0.2049 -0.0142  0.9025
   94ST     C0H 2524   1.107   0.322   3.395 -0.1156  0.6604 -0.4693
   94ST     H0I 2525   1.060   0.311   3.297 -0.3729 -0.8312 -0.1814
   94ST     H0J 2526   1.144   0.222   3.416  0.2197  0.8014 -0.3732
   94ST     C0K 2527   1.228   0.425   3.400 -0.1949  0.8732  0.2479
   94ST     H0M 2528   1.182   0.525   3.394 -1.6241  0.3087  1.3579
   94ST     H0N 2529   1.291   0.420   3.489 -0.3192  0.4631  0.3130
   94ST     C0O 2530   1.306   0.403   3.267 -0.1840  0.3339 -0.1091
   94ST     H0P 2531   1.392   0.469   3.278  1.0757 -1.7503  3.4592
   94ST     H0Q 2532   1.238   0.431   3.186 -1.2408 -0.3994  0.5100
   94ST     C0R 2533   1.365   0.265   3.255 -0.3159 -0.7098 -0.1580
   94ST     H0S 2534   1.307   0.174   3.269  0.1425 -0.9405  0.2685
   94ST     H0T 2535   1.436   0.249   3.336  2.3900  0.9198 -2.1191
   94ST     C0U 2536   1.444   0.241   3.128  0.9069  0.2032 -0.2594
   94ST     H0V 2537   1.506   0.152   3.135 -1.7721 -1.6278  0.6085
   94ST     H0W 2538   1.512   0.326   3.116 -0.0963  0.9330 -0.9105
   94ST     C0X 2539   1.355   0.257   3.004  0.1913 -0.3062  0.7500
   94ST     H0Y 2540   1.270   0.189   3.012 -0.8159  0.6940 -0.9983
   94ST     H0Z 2541   1.317   0.359   2.993  0.0064 -0.0987  3.0858
   94ST     C10 2542   1.431   0.226   2.876 -0.4253 -0.1220 -0.2191
   94ST     H11 2543   1.522   0.285   2.863 -1.8856  1.9464 -1.4712
   94ST     H12 2544   1.468   0.125   2.859 -0.4475  0.2348 -2.5737
   94ST     C13 2545   1.351   0.244   2.740 -0.3035  0.3349 -0.0552
   94ST     H14 2546   1.276   0.166   2.728  1.1528 -1.1505  0.2951
   94ST     H15 2547   1.301   0.340   2.750  1.5502  1.3135 -0.1414
   94ST     C16 2548   1.455   0.227   2.624 -0.2398 -0.3706 -0.5466
   94ST     H17 2549   1.429   0.291   2.539  2.5521  0.8840 -0.5271
   94ST     H18 2550   1.550   0.272   2.653 -1.0546 -0.5509  2.5775
   94ST     C19 2551   1.474   0.088   2.570  0.0290 -0.0846  0.7592
   94ST     H1A 2552   1.563   0.088   2.507  0.1936 -2.1647  0.9802
   94ST     H1B 2553   1.487   0.008   2.642 -0.2639  0.3303  1.2776
   94ST     C1C 2554   1.370   0.027   2.474  0.5970 -0.0598 -0.0208
   94ST     H1D 2555   1.277   0.027   2.530  0.0394  1.0399 -0.9290
   94ST     H1E 2556   1.363   0.089   2.385 -1.0193 -0.7096 -0.3468
   94ST     C1F 2557   1.385  -0.125   2.435  0.3871 -0.0393 -0.0852
   94ST     H1G 2558   1.471  -0.128   2.368  2.4698 -0.7034  2.5234
   94ST     H1H 2559   1.417  -0.179   2.524  0.2025 -1.3831 -0.8202
   94ST     C1I 2560   1.267  -0.195   2.370  0.5636 -0.2910 -0.3207
   94ST     H1J 2561   1.173  -0.197   2.425  2.0071  2.1847  2.4454
   94ST     H1K 2562   1.309  -0.294   2.354  1.5349  0.1017 -0.2712
   94ST     C1M 2563   1.231  -0.133   2.231  0.2061  0.5311 -0.5679
   94ST     H1N 2564   1.326  -0.130   2.177  1.1448  1.6875  1.0624
   94ST     H1O 2565   1.196  -0.030   2.237  0.8226  0.6761  0.9986
   94ST     C1P 2566   1.124  -0.213   2.153 -0.7196 -0.0399  0.5180
   94ST     H1Q 2567   1.032  -0.190   2.207 -0.3455  0.0971  1.0931
   94ST     H1R 2568   1.110  -0.163   2.056 -0.3518 -0.3336  0.3114
   94ST     C1S 2569   1.142  -0.366   2.143  0.2797  0.0307  0.5404
   94ST     H1T 2570   1.234  -0.389   2.090 -0.2009 -0.1278 -0.2298
   94ST     H1U 2571   1.063  -0.419   2.090  1.4254  1.9636 -3.3270
   94ST     H1V 2572   1.155  -0.406   2.243 -0.1520  1.0602  1.0207
   95EH     H00 2573   1.352   0.210   4.078 -0.9562 -1.5765  0.0851
   95EH     C01 2574   1.262   0.270   4.068 -0.0334 -0.1946 -0.0976
   95EH     H02 2575   1.180   0.225   4.124 -0.9316 -1.0794 -2.0805
   95EH     H03 2576   1.278   0.366   4.117  0.9385 -1.0686  1.3405
   95EH     C04 2577   1.234   0.292   3.924  0.4057 -0.1579  0.6263
   95EH     C05 2578   1.101   0.329   3.891  0.1013 -0.3598  0.3477
   95EH     H06 2579   1.024   0.262   3.927 -0.2973  0.2359  0.6162
   95EH     H07 2580   1.098   0.351   3.785 -0.9734  0.5835  0.5569
   95EH     C08 2581   1.347   0.364   3.861 -0.7400  0.0145  0.5749
   95EH     O09 2582   1.337   0.440   3.764  0.0000  0.0491  0.1787
   95EH     O0A 2583   1.475   0.316   3.901 -0.3442 -0.0397  0.4645
   95EH     C0B 2584   1.591   0.357   3.838 -0.3248 -0.2724  0.0001
   95EH     H0C 2585   1.612   0.463   3.850  0.4220 -0.3769 -0.3149
   95EH     H0D 2586   1.575   0.330   3.733 -0.1755  0.1001 -0.1185
   95EH     C0E 2587   1.709   0.275   3.899 -0.3864 -0.1061  1.0538
   95EH     H0F 2588   1.701   0.168   3.878 -0.2113 -0.0169  0.5301
   95EH     C0G 2589   1.829   0.321   3.816  0.0628  0.4602  0.8429
   95EH     H0H 2590   1.918   0.306   3.878 -0.4208 -1.9023  1.0256
   95EH     H0I 2591   1.832   0.430   3.816  1.8436  0.4322  0.8385
   95EH     C0J 2592   1.830   0.257   3.675  0.7679 -0.0339 -0.0047
   95EH     H0K 2593   1.750   0.288   3.608 -0.6321 -1.3103  1.0521
   95EH     H0M 2594   1.803   0.152   3.686  1.6206  0.0574  3.2034
   95EH     H0N 2595   1.925   0.261   3.622  1.0404 -0.2366  0.4654
   95EH     C0O 2596   1.735   0.300   4.046  0.3700  0.0162  0.1128
   95EH     H0P 2597   1.757   0.407   4.053  1.7485 -0.1976 -0.7572
   95EH     H0Q 2598   1.634   0.302   4.088 -0.0871 -0.5537 -0.9515
   95EH     C0R 2599   1.823   0.213   4.128  0.5532  0.0870 -0.6742
   95EH     H0S 2600   1.927   0.212   4.094  2.3213 -2.3955  4.1445
   95EH     H0T 2601   1.789   0.109   4.122 -0.7811  0.6342 -2.9494
   95EH     C0U 2602   1.832   0.256   4.271 -0.9147 -0.8556 -0.1478
   95EH     H0V 2603   1.905   0.189   4.315 -2.2242 -1.3161  1.3359
   95EH     H0W 2604   1.876   0.356   4.267 -4.5566  0.8344 -0.4018
   95EH     C0X 2605   1.700   0.250   4.355  0.4781 -0.4913  0.3797
   95EH     H0Y 2606   1.616   0.298   4.304  0.7902  0.4951  0.7918
   95EH     H0Z 2607   1.706   0.292   4.455  1.3802 -1.9511  0.9643
   95EH     H10 2608   1.664   0.147   4.368 -1.2127  0.0327  0.0681
   96ST     H00 2609   0.915   0.482   4.142  0.4980 -1.1284  3.6629
   96ST     C01 2610   1.002   0.428   4.104 -0.0593  0.1209  0.4533
   96ST     H02 2611   1.084   0.449   4.173  0.9254  2.6998 -1.4058
   96ST     H03 2612   0.973   0.325   4.119  2.7201 -1.2891 -3.1838
   96ST     C04 2613   1.027   0.459   3.949  0.2403 -0.6891 -0.4947
   96ST     C05 2614   1.120   0.563   3.922  0.2980  0.4137 -0.3639
   96ST     H06 2615   1.131   0.572   3.815  2.8389  1.2456 -0.0712
   96ST     H07 2616   1.210   0.540   3.977 -0.1597 -1.0397 -0.1740
   96ST     C08 2617   0.895   0.447   3.881 -0.2938 -0.0846 -0.3423
   96ST     O09 2618   0.866   0.501   3.775  0.4863  0.1769 -0.0394
   96ST     O0A 2619   0.815   0.351   3.933 -0.0086  0.4445 -0.0656
   96ST     C0B 2620   0.700   0.302   3.864 -0.0146 -0.1769  0.0946
   96ST     H0C 2621   0.659   0.374   3.793 -0.4028 -1.0077 -0.5432
   96ST     H0D 2622   0.728   0.214   3.804  0.6256 -0.7801  1.2625
   96ST     C0E 2623   0.594   0.248   3.963  0.4324  0.2799 -0.0517
   96ST     H0F 2624   0.642   0.166   4.016 -0.5673 -0.0287  0.3895
   96ST     H0G 2625   0.523   0.190   3.903 -1.6520  1.7067  0.9926
   96ST     C0H 2626   0.551   0.354   4.067 -0.2653 -0.4153 -0.3551
   96ST     H0I 2627   0.614   0.442   4.067 -1.3902  0.4038  0.1011
   96ST     H0J 2628   0.550   0.304   4.163  1.2365  1.4208  0.6356
   96ST     C0K 2629   0.409   0.403   4.040 -0.3856 -0.0493 -0.1283
   96ST     H0M 2630   0.349   0.316   4.014  1.5886 -1.6372  0.4456
   96ST     H0N 2631   0.371   0.442   4.134  2.7215 -0.2956  1.3129
   96ST     C0O 2632   0.409   0.511   3.924 -0.3687  0.8908  0.4115
   96ST     H0P 2633   0.427   0.463   3.828 -2.6564 -0.8783  0.8184
   96ST     H0Q 2634   0.496   0.576   3.926  0.6378 -0.4344  1.3063
   96ST     C0R 2635   0.274   0.573   3.906 -0.1854 -0.1640  0.8709
   96ST     H0S 2636   0.212   0.591   3.994 -0.2819 -0.7399  0.9229
   96ST     H0T 2637   0.218   0.491   3.861  1.3364 -0.1216 -1.1822
   96ST     C0U 2638   0.271   0.694   3.815 -0.1319  0.6843  0.1229
   96ST     H0V 2639   0.359   0.750   3.847  0.6349 -0.8008  0.6525
   96ST     H0W 2640   0.183   0.756   3.834 -0.7560  0.0206 -0.5713
   96ST     C0X 2641   0.278   0.657   3.666 -0.9776  0.1984  0.1283
   96ST     H0Y 2642   0.382   0.634   3.645  0.0990  2.9975  2.1829
   96ST     H0Z 2643   0.232   0.564   3.631  0.4965  0.0085 -1.3636
   96ST     C10 2644   0.232   0.769   3.571 -0.0003 -0.4989  0.3849
   96ST     H11 2645   0.127   0.780   3.598  0.0664  0.6918  0.1616
   96ST     H12 2646   0.278   0.867   3.581 -0.5864 -0.0885 -0.8447
   96ST     C13 2647   0.244   0.721   3.420  0.5117 -0.1043 -0.5063
   96ST     H14 2648   0.350   0.735   3.399  0.7669  0.9984  1.4268
   96ST     H15 2649   0.210   0.618   3.413  0.3428 -0.0533 -0.4350
   96ST     C16 2650   0.155   0.791   3.317  0.3804 -0.0023 -0.9592
   96ST     H17 2651   0.052   0.793   3.353  0.2129 -1.7067 -1.2944
   96ST     H18 2652   0.175   0.898   3.319 -1.4233  0.3496  0.9353
   96ST     C19 2653   0.154   0.730   3.174  0.1230  0.3328 -0.4945
   96ST     H1A 2654   0.134   0.624   3.185  0.3478  0.5905  2.9258
   96ST     H1B 2655   0.071   0.771   3.116 -2.0322  1.6300  3.3117
   96ST     C1C 2656   0.289   0.751   3.099 -0.4701  0.5409  0.5561
   96ST     H1D 2657   0.328   0.853   3.103 -0.2707  0.4503  1.0301
   96ST     H1E 2658   0.361   0.684   3.146  0.2026 -0.1680 -1.4545
   96ST     C1F 2659   0.280   0.694   2.949 -0.1814  0.3283 -0.9755
   96ST     H1G 2660   0.241   0.593   2.945  0.1933  0.2591 -3.6446
   96ST     H1H 2661   0.211   0.753   2.888 -0.6700 -0.1021 -0.8369
   96ST     C1I 2662   0.424   0.691   2.880 -0.1225  0.0204  0.7953
   96ST     H1J 2663   0.488   0.626   2.940 -0.8192 -0.5849  0.8822
   96ST     H1K 2664   0.463   0.793   2.886  1.2475 -0.4486  0.0349
   96ST     C1M 2665   0.408   0.643   2.737 -0.0930 -0.6530 -0.0526
   96ST     H1N 2666   0.329   0.691   2.679  1.6356 -0.0380 -1.9161
   96ST     H1O 2667   0.344   0.555   2.729 -1.5638  0.3251  0.6401
   96ST     C1P 2668   0.536   0.606   2.660  0.0021 -0.7011  0.0841
   96ST     H1Q 2669   0.605   0.685   2.630  0.2895 -0.4453  1.3804
   96ST     H1R 2670   0.584   0.526   2.716 -0.2504 -1.2126 -0.4225
   96ST     C1S 2671   0.493   0.531   2.529 -0.3613 -0.2767 -0.7634
   96ST     H1T 2672   0.449   0.591   2.449 -0.4960  0.6766  0.0175
   96ST     H1U 2673   0.429   0.446   2.549  0.2203 -0.6876 -0.6418
   96ST     H1V 2674   0.574   0.479   2.478 -2.1397 -2.6841 -1.2240
   97EH     H00 2675   0.932   0.855   3.899 -0.0875  0.1587  0.4483
   97EH     C01 2676   0.965   0.755   3.871 -0.1605  0.3319 -0.2543
   97EH     H02 2677   0.872   0.703   3.893  0.7123 -1.3072 -0.3675
   97EH     H03 2678   0.980   0.741   3.764 -0.1072 -2.5287  0.0811
   97EH     C04 2679   1.095   0.721   3.949 -0.9971  0.6494 -0.7199
   97EH     C05 2680   1.204   0.788   3.903 -0.9520  0.1961  0.1871
   97EH     H06 2681   1.266   0.770   3.989 -2.5719 -2.0538  0.9449
   97EH     H07 2682   1.226   0.765   3.799  0.7144  1.1334  0.3183
   97EH     C08 2683   1.074   0.727   4.098  0.3474  0.1255 -0.4577
   97EH     O09 2684   1.150   0.689   4.187 -0.1963 -0.1089 -0.0726
   97EH     O0A 2685   0.949   0.766   4.134 -0.4973  0.2123  0.5956
   97EH     C0B 2686   0.919   0.804   4.269  0.3299 -0.2404 -0.7266
   97EH     H0C 2687   0.987   0.882   4.302 -0.6862  0.0438  0.7642
   97EH     H0D 2688   0.932   0.715   4.330 -0.1120  1.2861  1.6493
   97EH     C0E 2689   0.765   0.842   4.278  1.0206  0.1740  0.2554
   97EH     H0F 2690   0.747   0.904   4.190 -0.9117  1.3770  1.4750
   97EH     C0G 2691   0.678   0.717   4.262 -0.5281  0.4322 -0.2591
   97EH     H0H 2692   0.682   0.652   4.349 -0.4053 -0.1085 -0.6610
   97EH     H0I 2693   0.700   0.675   4.163 -0.1576  0.1312 -0.0485
   97EH     C0J 2694   0.535   0.755   4.242  0.4938  0.4186  0.0023
   97EH     H0K 2695   0.513   0.830   4.165 -0.3679 -0.2809 -0.4455
   97EH     H0M 2696   0.489   0.797   4.331 -1.2611 -2.7660  0.6812
   97EH     H0N 2697   0.482   0.665   4.211 -0.5401  1.1536 -0.4157
   97EH     C0O 2698   0.724   0.920   4.397 -0.3271 -0.7716  0.2211
   97EH     H0P 2699   0.776   1.015   4.394  1.2827 -1.5941  1.2451
   97EH     H0Q 2700   0.618   0.947   4.400 -0.4977 -0.8356 -3.5799
   97EH     C0R 2701   0.773   0.863   4.535 -0.2662  0.0429  0.4189
   97EH     H0S 2702   0.881   0.876   4.529 -0.5297  1.0087 -3.3683
   97EH     H0T 2703   0.753   0.757   4.550 -0.0181 -0.0289  0.2541
   97EH     C0U 2704   0.715   0.933   4.655 -0.4663  0.1579 -0.6848
   97EH     H0V 2705   0.781   1.009   4.697 -0.3245 -0.5065  0.3146
   97EH     H0W 2706   0.620   0.975   4.621 -0.6592 -0.3881 -0.8143
   97EH     C0X 2707   0.691   0.841   4.773 -0.2026 -0.4010 -0.7401
   97EH     H0Y 2708   0.643   0.882   4.862 -1.3478 -0.0067 -1.5334
   97EH     H0Z 2709   0.779   0.786   4.807  1.2515  1.5984 -1.1400
   97EH     H10 2710   0.626   0.756   4.753 -0.5022 -0.6602  1.2635
   98LA     H00 2711   1.043   1.012   3.780  0.9067  0.8988  0.4134
   98LA     C01 2712   1.149   0.988   3.769  0.5943 -0.1864 -0.2216
   98LA     H02 2713   1.162   0.917   3.687  1.5997  1.1268 -1.2106
   98LA     H03 2714   1.185   1.085   3.737  0.3546  1.4621  4.1860
   98LA     C04 2715   1.221   0.950   3.901  0.1124  0.6225  0.2787
   98LA     C05 2716   1.173   0.993   4.022 -0.7924  0.0878  0.4294
   98LA     H06 2717   1.066   0.980   4.019 -0.6781 -0.6572 -1.2416
   98LA     H07 2718   1.226   0.951   4.106  1.6510  1.9117 -0.1468
   98LA     C08 2719   1.368   0.956   3.873  0.2882  0.1327  0.3068
   98LA     O09 2720   1.425   0.982   3.770  0.1912 -0.4515 -0.0400
   98LA     O0A 2721   1.436   0.916   3.978  0.2587  0.0836 -0.5153
   98LA     C0B 2722   1.579   0.890   3.966 -0.5051  0.3855 -0.3375
   98LA     H0C 2723   1.628   0.983   3.938 -0.7373  1.0643  1.4497
   98LA     H0D 2724   1.605   0.815   3.892  0.7638 -0.2198  0.7121
   98LA     C0E 2725   1.643   0.852   4.101 -0.4398  0.1226  0.6660
   98LA     H0F 2726   1.726   0.784   4.082  0.4888  1.0464  1.3563
   98LA     H0G 2727   1.669   0.944   4.154  0.3191 -0.3529  1.1408
   98LA     C0H 2728   1.546   0.800   4.202 -0.6021 -0.1614  0.2280
   98LA     H0I 2729   1.473   0.879   4.222 -0.4279 -0.2652  1.2781
   98LA     H0J 2730   1.491   0.712   4.169 -2.9010  1.4558 -0.3660
   98LA     C0K 2731   1.622   0.774   4.339  0.2677 -0.3205  0.4957
   98LA     H0M 2732   1.685   0.686   4.324  0.3327 -0.0944 -0.6126
   98LA     H0N 2733   1.684   0.855   4.378 -0.0847  0.3843 -0.3802
   98LA     C0O 2734   1.514   0.740   4.444  0.7755 -0.5431  0.3221
   98LA     H0P 2735   1.460   0.829   4.476  1.5852 -0.7490  2.3049
   98LA     H0Q 2736   1.457   0.654   4.409 -0.3235  0.5476 -0.6152
   98LA     C0R 2737   1.577   0.700   4.580 -1.0646  0.1450  0.9207
   98LA     H0S 2738   1.608   0.596   4.580 -0.5193  0.3030  1.3851
   98LA     H0T 2739   1.663   0.760   4.609  0.0886 -0.3865 -1.2467
   98LA     C0U 2740   1.473   0.711   4.688 -0.7348  0.4210 -0.4511
   98LA     H0V 2741   1.424   0.808   4.686 -3.5830 -0.9473 -0.5580
   98LA     H0W 2742   1.396   0.635   4.669  0.3688 -0.7977 -0.1476
   98LA     C0X 2743   1.532   0.695   4.828  0.2629 -0.7455  0.2119
   98LA     H0Y 2744   1.540   0.590   4.856  2.2752 -0.8383 -0.5522
   98LA     H0Z 2745   1.628   0.745   4.841  0.0507 -0.1947 -0.3119
   98LA     C10 2746   1.424   0.746   4.928 -0.5008  0.4911 -0.1747
   98LA     H11 2747   1.331   0.689   4.935 -0.9912  1.3568  0.6792
   98LA     H12 2748   1.402   0.848   4.896  1.8561  0.9743 -0.3737
   98LA     C13 2749   1.480   0.755   5.071 -0.2391 -0.4528  0.1961
   98LA     H14 2750   1.559   0.830   5.078  0.1403 -0.6733 -1.4959
   98LA     H15 2751   1.529   0.662   5.097  0.6878 -0.8365 -2.6874
   98LA     C16 2752   1.366   0.793   5.167 -0.3209 -0.1326 -0.0323
   98LA     H17 2753   1.285   0.720   5.173  0.1386 -0.5321  1.5984
   98LA     H18 2754   1.324   0.891   5.145  1.1184  0.5441  0.1768
   98LA     C19 2755   1.431   0.790   5.309  0.4670 -0.2787 -0.2044
   98LA     H1A 2756   1.371   0.834   5.388 -0.2693 -1.8898  0.1606
   98LA     H1B 2757   1.529   0.836   5.317  1.2872 -1.8220 -1.0658
   98LA     H1C 2758   1.454   0.686   5.333  1.3699  0.0433  0.3605
   99EH     H00 2759   1.346   1.265   4.146  0.5522  1.5109 -1.6232
   99EH     C01 2760   1.327   1.179   4.082  0.1593 -0.2164  0.7521
   99EH     H02 2761   1.390   1.185   3.994 -0.4438 -1.3644  0.2329
   99EH     H03 2762   1.358   1.101   4.151 -2.1173 -2.9703 -1.2305
   99EH     C04 2763   1.171   1.152   4.056 -0.2989 -0.2104  0.3489
   99EH     C05 2764   1.112   1.221   3.959 -0.0134  0.1534 -0.3200
   99EH     H06 2765   1.192   1.225   3.885  2.2863 -1.3649  2.0026
   99EH     H07 2766   1.011   1.190   3.939 -0.2393  1.7830 -1.8905
   99EH     C08 2767   1.093   1.140   4.181  0.0509 -0.4583 -1.3506
   99EH     O09 2768   0.973   1.118   4.187 -0.0794  0.4738  0.3768
   99EH     O0A 2769   1.163   1.135   4.290 -0.2323 -0.8575 -0.0896
   99EH     C0B 2770   1.103   1.139   4.419  0.0929 -0.2609  0.2765
   99EH     H0C 2771   1.084   1.038   4.456 -1.4141 -0.9366 -2.2410
   99EH     H0D 2772   1.007   1.189   4.411 -0.9331 -1.8793  2.0719
   99EH     C0E 2773   1.187   1.218   4.513  0.0580 -0.4450 -0.5202
   99EH     H0F 2774   1.213   1.316   4.474  1.7202  0.3850  2.4655
   99EH     C0G 2775   1.109   1.262   4.640  0.4988  0.5708 -0.1179
   99EH     H0H 2776   1.018   1.312   4.610 -0.0231 -0.2485  0.0844
   99EH     H0I 2777   1.170   1.326   4.704  0.1912 -0.7171  1.4978
   99EH     C0J 2778   1.066   1.144   4.736 -0.3167 -0.2596  0.0307
   99EH     H0K 2779   0.997   1.176   4.815 -0.2403  0.1340 -0.0610
   99EH     H0M 2780   1.156   1.104   4.783 -0.9054 -1.4385  0.1683
   99EH     H0N 2781   1.020   1.073   4.667 -0.1739  0.9290 -1.3043
   99EH     C0O 2782   1.328   1.153   4.541  0.7353  0.2156 -0.5767
   99EH     H0P 2783   1.356   1.182   4.643  0.1763  2.2864 -0.9761
   99EH     H0Q 2784   1.325   1.046   4.557  0.7860  0.4672  1.2048
   99EH     C0R 2785   1.431   1.180   4.428 -0.2508 -0.4092  0.0953
   99EH     H0S 2786   1.391   1.255   4.360 -1.6921 -0.6497  0.6475
   99EH     H0T 2787   1.443   1.090   4.368 -2.7810 -0.9655  0.3610
   99EH     C0U 2788   1.565   1.223   4.472 -0.2965  0.0820 -0.2365
   99EH     H0V 2789   1.633   1.267   4.399 -0.8248 -0.0246 -0.7915
   99EH     H0W 2790   1.564   1.303   4.546 -0.3547  0.8975 -1.1059
   99EH     C0X 2791   1.651   1.111   4.533  0.3379  0.4357  0.1709
   99EH     H0Y 2792   1.726   1.142   4.606  0.2051  0.0818  0.4618
   99EH     H0Z 2793   1.697   1.064   4.446  1.3090 -3.8218  2.8056
   99EH     H10 2794   1.593   1.027   4.571 -0.3360  0.2551 -1.2306
  100EH     H00 2795   0.921   1.358   4.080  0.1645 -0.5285 -1.2744
  100EH     C01 2796   1.016   1.412   4.088 -0.0918 -0.2606  0.0136
  100EH     H02 2797   1.011   1.520   4.098 -0.8177 -0.2452 -0.4260
  100EH     H03 2798   1.054   1.379   4.185 -0.0887 -0.7332 -0.1436
  100EH     C04 2799   1.086   1.390   3.958  0.4176 -0.7163 -0.5472
  100EH     C05 2800   1.017   1.401   3.839 -0.2183  0.0720 -0.2213
  100EH     H06 2801   0.931   1.338   3.827 -1.7305  1.6981  1.7915
  100EH     H07 2802   1.094   1.394   3.763  0.2615 -1.4308  0.3836
  100EH     C08 2803   1.219   1.450   3.954  0.0923 -0.1412 -0.1175
  100EH     O09 2804   1.280   1.481   4.056  0.0044  0.9188 -0.0066
  100EH     O0A 2805   1.285   1.457   3.829 -0.2461  0.4966  0.4173
  100EH     C0B 2806   1.413   1.507   3.801  0.2822 -0.6017 -0.1195
  100EH     H0C 2807   1.478   1.472   3.881 -1.3648 -0.0768  1.4818
  100EH     H0D 2808   1.413   1.616   3.811  1.6407 -0.5567 -0.6274
  100EH     C0E 2809   1.465   1.460   3.664  0.8351  0.5192 -0.1229
  100EH     H0F 2810   1.561   1.500   3.633 -0.0907  1.5411 -1.8181
  100EH     C0G 2811   1.498   1.303   3.671 -1.0459 -1.1888 -0.5076
  100EH     H0H 2812   1.415   1.244   3.711 -1.9511  0.1250 -0.4164
  100EH     H0I 2813   1.574   1.290   3.748 -1.3456 -0.5948 -0.1109
  100EH     C0J 2814   1.561   1.237   3.544  0.1298 -0.6473  0.2360
  100EH     H0K 2815   1.476   1.246   3.476 -0.8682 -1.7801  1.3078
  100EH     H0M 2816   1.557   1.130   3.562 -0.6937 -0.8002 -0.8417
  100EH     H0N 2817   1.657   1.277   3.512 -1.6013  0.0926 -4.3411
  100EH     C0O 2818   1.367   1.500   3.557  0.0139 -0.0268  0.6007
  100EH     H0P 2819   1.382   1.445   3.464 -1.8894 -0.1725  0.3621
  100EH     H0Q 2820   1.267   1.473   3.593 -0.5490 -3.4094 -3.1563
  100EH     C0R 2821   1.356   1.645   3.524 -0.2261 -0.4341  0.3925
  100EH     H0S 2822   1.453   1.673   3.483  0.8007 -2.8992  1.0370
  100EH     H0T 2823   1.360   1.708   3.613  0.2876  0.1730 -0.0551
  100EH     C0U 2824   1.234   1.686   3.437  0.2209 -0.7438  0.1786
  100EH     H0V 2825   1.249   1.653   3.334 -1.7735  0.3743 -0.5094
  100EH     H0W 2826   1.136   1.643   3.461  0.9401 -3.2076 -1.0927
  100EH     C0X 2827   1.214   1.837   3.430  0.1601  1.1976  0.4527
  100EH     H0Y 2828   1.130   1.863   3.365  0.4155 -2.1752 -1.2983
  100EH     H0Z 2829   1.300   1.888   3.385 -0.5745  0.4846 -1.8180
  100EH     H10 2830   1.200   1.869   3.534 -1.0751  0.0961  0.6333
  101ST     H00 2831   1.019   1.488   3.594  1.0284  2.4815  0.8398
  101ST     C01 2832   0.929   1.515   3.649 -0.3133 -0.3458  0.0939
  101ST     H02 2833   0.887   1.601   3.596  0.0564  0.2912  0.8315
  101ST     H03 2834   0.863   1.429   3.638 -0.7613  0.0038  0.0256
  101ST     C04 2835   0.943   1.540   3.794  0.2365  0.0361  0.3204
  101ST     C05 2836   0.827   1.533   3.865  0.4583 -0.7141  0.1448
  101ST     H06 2837   0.838   1.544   3.971  0.1936  0.2742  0.0674
  101ST     H07 2838   0.769   1.445   3.839  0.6303 -0.8553  0.2363
  101ST     C08 2839   1.039   1.646   3.818  0.0048  0.3015 -0.3629
  101ST     O09 2840   1.126   1.683   3.732  0.4834  0.7195  0.1683
  101ST     O0A 2841   1.036   1.692   3.946  0.2626  0.5120 -0.3471
  101ST     C0B 2842   1.136   1.782   3.991  0.4318 -0.4864  0.0472
  101ST     H0C 2843   1.230   1.747   3.949  0.2009 -2.4609  1.1429
  101ST     H0D 2844   1.110   1.874   3.938  0.8734 -0.5533 -0.2911
  101ST     C0E 2845   1.147   1.792   4.141 -0.2938 -0.1066 -0.4682
  101ST     H0F 2846   1.153   1.697   4.195  0.5148  0.4295  0.4117
  101ST     H0G 2847   1.052   1.827   4.180  1.1296  1.9433  1.2581
  101ST     C0H 2848   1.262   1.879   4.197  0.2153  0.3208  0.1101
  101ST     H0I 2849   1.254   1.896   4.304 -1.9124 -1.3052  0.2459
  101ST     H0J 2850   1.268   1.980   4.157  0.1920  0.5877  0.7768
  101ST     C0K 2851   1.395   1.802   4.193  0.0220  0.0228  0.1693
  101ST     H0M 2852   1.411   1.762   4.094  4.0237  0.6252  0.4832
  101ST     H0N 2853   1.470   1.879   4.213 -1.0304  1.0717  0.1441
  101ST     C0O 2854   1.409   1.694   4.310  0.1340 -0.0701  0.1310
  101ST     H0P 2855   1.512   1.660   4.302 -0.0236 -0.0264 -2.5717
  101ST     H0Q 2856   1.347   1.611   4.279  1.2838 -0.7652 -0.3432
  101ST     C0R 2857   1.383   1.738   4.455  0.2362  0.0360  0.6758
  101ST     H0S 2858   1.275   1.733   4.467  0.0628 -0.0976 -0.9280
  101ST     H0T 2859   1.409   1.844   4.466  0.9050  0.2588 -2.6763
  101ST     C0U 2860   1.452   1.651   4.560  0.4601  0.3251 -0.1893
  101ST     H0V 2861   1.550   1.632   4.518  1.7751  2.3162  1.8443
  101ST     H0W 2862   1.394   1.559   4.564 -0.3461  0.8431  0.2085
  101ST     C0X 2863   1.465   1.702   4.700 -0.6578  0.5011 -0.6327
  101ST     H0Y 2864   1.500   1.805   4.710  1.6203 -0.1476 -1.5583
  101ST     H0Z 2865   1.361   1.700   4.730 -0.3922 -1.3550  0.2434
  101ST     C10 2866   1.557   1.605   4.788  0.6693  0.2727 -0.1731
  101ST     H11 2867   1.643   1.584   4.724 -0.9568 -1.5239 -1.8588
  101ST     H12 2868   1.584   1.659   4.879 -0.2973  0.5665 -0.0546
  101ST     C13 2869   1.501   1.467   4.825  0.0923  0.2840 -0.6936
  101ST     H14 2870   1.436   1.438   4.743 -0.0927  0.7293 -0.7036
  101ST     H15 2871   1.583   1.394   4.823  1.3067  1.6404 -1.5360
  101ST     C16 2872   1.413   1.465   4.950  0.2773 -0.7277 -0.0202
  101ST     H17 2873   1.477   1.496   5.033 -0.3944  3.0616 -0.8424
  101ST     H18 2874   1.346   1.548   4.931  0.7886 -0.6674 -1.6385
  101ST     C19 2875   1.343   1.332   4.984 -0.6002 -0.0820  0.1984
  101ST     H1A 2876   1.269   1.315   4.906  1.0641  0.0972 -1.4724
  101ST     H1B 2877   1.412   1.247   4.980  0.7211  0.9239  1.3193
  101ST     C1C 2878   1.262   1.342   5.114  0.8103 -0.5347  0.0228
  101ST     H1D 2879   1.330   1.345   5.200  0.5649 -0.6978  0.2246
  101ST     H1E 2880   1.217   1.441   5.115  1.4088 -0.2660  0.7802
  101ST     C1F 2881   1.158   1.233   5.126  0.8405 -0.2496 -0.5710
  101ST     H1G 2882   1.087   1.236   5.044  0.1737  0.6229  0.0261
  101ST     H1H 2883   1.198   1.132   5.130 -0.2442 -0.6385  0.7135
  101ST     C1I 2884   1.073   1.250   5.253  0.5290  0.1032  0.2159
  101ST     H1J 2885   1.016   1.342   5.264 -1.6973 -1.2015 -0.1794
  101ST     H1K 2886   1.141   1.245   5.338  2.0031 -1.2160 -1.0245
  101ST     C1M 2887   0.964   1.141   5.259 -1.1822  0.5882 -0.1268
  101ST     H1N 2888   0.918   1.139   5.358  0.1937 -0.0624  0.5190
  101ST     H1O 2889   1.009   1.042   5.251  1.4669  1.7996 -0.6565
  101ST     C1P 2890   0.851   1.159   5.159 -0.3690 -0.7019  0.0049
  101ST     H1Q 2891   0.812   1.260   5.165 -1.7397 -1.1804 -0.7739
  101ST     H1R 2892   0.881   1.151   5.054  0.7018  0.4146  0.2119
  101ST     C1S 2893   0.732   1.071   5.196 -0.1396 -0.2256 -0.3383
  101ST     H1T 2894   0.690   1.085   5.295 -1.7670 -0.5966 -0.9581
  101ST     H1U 2895   0.761   0.966   5.197  1.1901  0.1367  0.5929
  101ST     H1V 2896   0.642   1.088   5.136 -0.9141 -3.0693 -0.0350
  102EH     H00 2897   0.518   1.639   3.965 -0.3256 -1.1008 -1.9587
  102EH     C01 2898   0.619   1.597   3.965  0.1475  0.0004 -0.2973
  102EH     H02 2899   0.672   1.631   4.054  0.7571 -1.3753 -0.1284
  102EH     H03 2900   0.598   1.492   3.984 -0.0760  0.2021  0.6188
  102EH     C04 2901   0.689   1.628   3.834 -0.1027  0.3932 -0.3221
  102EH     C05 2902   0.750   1.751   3.831  0.1561  0.5101  0.0360
  102EH     H06 2903   0.797   1.762   3.734 -2.1959 -0.8608 -1.3082
  102EH     H07 2904   0.803   1.772   3.922  3.6761 -0.1316 -1.7735
  102EH     C08 2905   0.630   1.569   3.712 -0.3889  0.1139 -0.0373
  102EH     O09 2906   0.654   1.597   3.598  0.1923  0.1556  0.3198
  102EH     O0A 2907   0.559   1.458   3.735 -0.1455  0.2257 -0.1246
  102EH     C0B 2908   0.485   1.400   3.635  0.0446  0.3052 -0.0120
  102EH     H0C 2909   0.547   1.367   3.552  0.5854  3.2062 -0.7991
  102EH     H0D 2910   0.417   1.479   3.604 -0.6189 -0.1967  0.1609
  102EH     C0E 2911   0.407   1.281   3.699 -0.4611  0.2121  0.1674
  102EH     H0F 2912   0.327   1.322   3.760 -0.7785  0.3945 -0.3733
  102EH     C0G 2913   0.330   1.198   3.597  0.2418  0.6006 -0.5737
  102EH     H0H 2914   0.391   1.129   3.538  0.5804 -0.7565  1.3219
  102EH     H0I 2915   0.271   1.253   3.523 -1.4933 -0.5802 -0.0976
  102EH     C0J 2916   0.220   1.115   3.656 -0.8661 -0.1050  0.6636
  102EH     H0K 2917   0.144   1.176   3.706 -0.3344  1.5898 -0.5641
  102EH     H0M 2918   0.254   1.036   3.723 -0.0308 -1.8523 -1.7566
  102EH     H0N 2919   0.175   1.058   3.575  0.5887 -0.5750  0.1764
  102EH     C0O 2920   0.502   1.202   3.795 -0.5503  0.3252 -0.0544
  102EH     H0P 2921   0.532   1.271   3.875 -1.6250  0.9766 -0.2056
  102EH     H0Q 2922   0.447   1.121   3.843  1.6614 -2.0534 -1.4406
  102EH     C0R 2923   0.620   1.141   3.718 -0.4030 -0.2540  0.6973
  102EH     H0S 2924   0.695   1.211   3.681 -2.8773  1.3218 -1.4899
  102EH     H0T 2925   0.590   1.078   3.634  0.1781  0.8230 -0.3421
  102EH     C0U 2926   0.702   1.045   3.807 -0.3315 -0.2930  0.1747
  102EH     H0V 2927   0.639   0.956   3.810  0.9062 -1.2129 -0.4409
  102EH     H0W 2928   0.794   1.019   3.755 -0.7350  0.0233 -0.7092
  102EH     C0X 2929   0.726   1.089   3.955  0.0263  0.0590 -0.2196
  102EH     H0Y 2930   0.790   1.021   4.012  0.0784  1.3801  1.3259
  102EH     H0Z 2931   0.628   1.101   4.001 -0.0528 -3.5577  0.6538
  102EH     H10 2932   0.781   1.184   3.956 -0.2964  0.2408  0.6276
  103LA     H00 2933   0.490   1.765   3.737 -0.9770 -0.6697 -0.9052
  103LA     C01 2934   0.555   1.847   3.705 -0.7932 -0.3634  0.2103
  103LA     H02 2935   0.610   1.830   3.613  1.7302  1.6693  1.2775
  103LA     H03 2936   0.478   1.918   3.674 -1.8486 -1.3933  0.4298
  103LA     C04 2937   0.654   1.886   3.819  0.3056 -0.2010 -0.3965
  103LA     C05 2938   0.746   1.981   3.784  0.4434  0.1873  0.4788
  103LA     H06 2939   0.833   1.981   3.848  0.3233  1.2083  0.6379
  103LA     H07 2940   0.768   1.967   3.679  0.1058 -2.5221  0.7234
  103LA     C08 2941   0.594   1.898   3.954  0.2820  0.5043 -0.3283
  103LA     O09 2942   0.659   1.908   4.060  0.2040 -0.3753 -0.1284
  103LA     O0A 2943   0.451   1.893   3.946  0.2852 -0.2513  0.1771
  103LA     C0B 2944   0.388   1.894   4.077 -0.2494 -0.1681  0.4236
  103LA     H0C 2945   0.441   1.840   4.155  1.2698  2.2895  1.1291
  103LA     H0D 2946   0.299   1.831   4.067  0.2636 -0.7031 -0.8450
  103LA     C0E 2947   0.360   2.036   4.120  0.7083  0.3656  0.0122
  103LA     H0F 2948   0.328   2.036   4.225 -1.5207  2.3473 -0.6343
  103LA     H0G 2949   0.450   2.097   4.114 -0.6999  2.5286  0.2919
  103LA     C0H 2950   0.257   2.101   4.033 -1.0780 -0.0344 -0.8075
  103LA     H0I 2951   0.277   2.082   3.928 -2.0259 -0.8355 -0.8491
  103LA     H0J 2952   0.162   2.060   4.068 -0.5440 -0.6641 -0.0526
  103LA     C0K 2953   0.260   2.252   4.057 -0.0173  0.2544 -0.5029
  103LA     H0M 2954   0.229   2.274   4.159  0.5884  0.4147 -0.3535
  103LA     H0N 2955   0.355   2.301   4.038  0.7016 -0.2702  1.5772
  103LA     C0O 2956   0.162   2.320   3.969 -0.5120 -0.4923 -0.6484
  103LA     H0P 2957   0.212   2.325   3.872  1.5753 -2.4744  0.2910
  103LA     H0Q 2958   0.078   2.250   3.967  0.1188 -1.2364 -1.8933
  103LA     C0R 2959   0.107   2.458   4.020 -0.5399  0.5034 -0.9488
  103LA     H0S 2960   0.071   2.456   4.123  1.1038  1.0453 -0.3568
  103LA     H0T 2961   0.183   2.536   4.021  0.0930 -0.0900 -1.6560
  103LA     C0U 2962  -0.005   2.513   3.924 -0.4413 -0.1600 -0.1025
  103LA     H0V 2963   0.019   2.494   3.819  1.5281  0.0733  0.2777
  103LA     H0W 2964  -0.094   2.454   3.942 -1.1326  1.2548  1.2545
  103LA     C0X 2965  -0.026   2.660   3.942 -0.5562 -0.2802 -0.8650
  103LA     H0Y 2966   0.062   2.722   3.922 -0.8599  0.4686  0.1191
  103LA     H0Z 2967  -0.095   2.685   3.861  0.1342  0.5684 -1.2100
  103LA     C10 2968  -0.085   2.702   4.073  0.2501  0.6074 -0.2636
  103LA     H11 2969  -0.021   2.673   4.156 -1.6118  0.2854  1.0835
  103LA     H12 2970  -0.179   2.648   4.078 -0.1360  1.3467  0.6384
  103LA     C13 2971  -0.113   2.845   4.085  0.2192  0.2861 -0.8631
  103LA     H14 2972  -0.170   2.860   4.176  1.3452  0.1483 -0.1304
  103LA     H15 2973  -0.179   2.879   4.004 -0.7655 -0.0735 -0.2227
  103LA     C16 2974   0.014   2.925   4.101 -0.5908  0.6978 -0.4151
  103LA     H17 2975   0.087   2.911   4.021  1.1095 -0.6032  1.3009
  103LA     H18 2976   0.072   2.884   4.184 -1.1672 -0.3233 -0.4937
  103LA     C19 2977  -0.010   3.079   4.121  0.2396  0.2118  0.3986
  103LA     H1A 2978  -0.063   3.121   4.035  2.7046  2.1812 -0.2209
  103LA     H1B 2979   0.093   3.112   4.111 -0.3727  1.5201 -1.9124
  103LA     H1C 2980  -0.049   3.102   4.220 -0.5209  0.4516  0.0484
  104EH     H00 2981   0.618   2.207   3.950  0.5630 -0.0429  1.2850
  104EH     C01 2982   0.720   2.186   3.917  0.3436  0.5969  0.1708
  104EH     H02 2983   0.780   2.275   3.936  0.6722  0.8097 -1.7429
  104EH     H03 2984   0.745   2.108   3.988  0.9785  0.4175 -0.2562
  104EH     C04 2985   0.724   2.146   3.773  0.2235  0.1388  0.3221
  104EH     C05 2986   0.607   2.151   3.700 -0.2254 -0.1223  0.0630
  104EH     H06 2987   0.524   2.124   3.763 -0.8572  2.2977  0.3156
  104EH     H07 2988   0.627   2.111   3.602  2.1580 -1.8821  1.1978
  104EH     C08 2989   0.855   2.175   3.705  0.5637  0.1049 -0.0994
  104EH     O09 2990   0.867   2.177   3.582  0.1050  0.6179 -0.0091
  104EH     O0A 2991   0.961   2.190   3.787 -0.4748  0.3123  0.4476
  104EH     C0B 2992   1.093   2.215   3.738  0.0935 -0.2330  0.2663
  104EH     H0C 2993   1.079   2.304   3.676 -2.8886 -0.9341 -0.1389
  104EH     H0D 2994   1.123   2.129   3.679 -2.8670 -0.9663 -0.2341
  104EH     C0E 2995   1.193   2.248   3.845 -0.3036 -0.1447 -0.1488
  104EH     H0F 2996   1.133   2.238   3.936  0.4390  1.1584  0.4885
  104EH     C0G 2997   1.305   2.141   3.862 -0.1639 -0.4389 -0.1097
  104EH     H0H 2998   1.260   2.042   3.870 -0.5185 -0.1359  1.9217
  104EH     H0I 2999   1.356   2.162   3.956 -1.7953  0.1809  0.6500
  104EH     C0J 3000   1.404   2.141   3.741 -0.1395 -0.4875  0.7015
  104EH     H0K 3001   1.489   2.079   3.766  0.9164  1.0340  0.9594
  104EH     H0M 3002   1.440   2.240   3.713 -2.3935 -0.4560 -2.4008
  104EH     H0N 3003   1.359   2.098   3.652 -1.6337 -1.4954  1.8998
  104EH     C0O 3004   1.244   2.391   3.840  0.6097  0.2365 -0.5188
  104EH     H0P 3005   1.309   2.413   3.755 -0.0900 -1.6338 -1.5438
  104EH     H0Q 3006   1.148   2.442   3.833  1.3125  1.4265 -1.6812
  104EH     C0R 3007   1.307   2.439   3.969 -0.2236  0.2529  0.3876
  104EH     H0S 3008   1.270   2.382   4.054 -0.6431 -0.0736 -0.0096
  104EH     H0T 3009   1.270   2.539   3.993  0.5571  1.0672 -1.6795
  104EH     C0U 3010   1.460   2.451   3.970 -0.5299 -0.0419 -0.3937
  104EH     H0V 3011   1.499   2.365   3.914  1.0002 -0.3660  1.1447
  104EH     H0W 3012   1.488   2.536   3.908 -1.4559 -0.1694 -1.0049
  104EH     C0X 3013   1.518   2.471   4.110  0.4617 -0.2834 -0.8887
  104EH     H0Y 3014   1.626   2.469   4.113  0.4590 -0.0245 -0.6091
  104EH     H0Z 3015   1.476   2.398   4.179  1.3539  0.0659  0.0207
  104EH     H10 3016   1.489   2.570   4.146  1.9669 -1.2024  2.9703
  105LA     H00 3017   0.593   2.405   3.830  0.5590  0.8645 -1.7971
  105LA     C01 3018   0.503   2.365   3.784  0.1743 -0.1470 -0.1930
  105LA     H02 3019   0.449   2.300   3.852  0.0887 -1.2121 -1.2587
  105LA     H03 3020   0.434   2.446   3.759 -1.7604 -1.4820  0.6533
  105LA     C04 3021   0.543   2.295   3.653 -0.2441 -0.1494 -1.0576
  105LA     C05 3022   0.641   2.353   3.571 -0.1606  0.0769 -0.4621
  105LA     H06 3023   0.719   2.381   3.641  0.1225 -0.7141 -0.4537
  105LA     H07 3024   0.662   2.290   3.487  0.7928  0.5289 -0.5689
  105LA     C08 3025   0.428   2.232   3.587  0.3392 -0.5819  0.1067
  105LA     O09 3026   0.317   2.222   3.643 -0.0858 -0.6990 -0.1773
  105LA     O0A 3027   0.439   2.181   3.466 -0.3540 -0.3968 -0.6754
  105LA     C0B 3028   0.341   2.094   3.406  0.2026 -0.4635 -0.8920
  105LA     H0C 3029   0.291   2.027   3.476  0.4328 -0.0699 -0.3436
  105LA     H0D 3030   0.265   2.152   3.353  0.1634  1.2345  0.9363
  105LA     C0E 3031   0.426   2.016   3.300  0.5461 -0.3896  0.4989
  105LA     H0F 3032   0.348   1.954   3.257  0.2029  0.7304 -0.5353
  105LA     H0G 3033   0.482   2.071   3.224 -2.2411 -0.5540 -1.7626
  105LA     C0H 3034   0.533   1.921   3.370 -0.0001  0.2251 -0.4389
  105LA     H0I 3035   0.603   1.977   3.432 -0.8176 -1.1057  1.7250
  105LA     H0J 3036   0.489   1.858   3.446  2.4325  0.1013  0.9275
  105LA     C0K 3037   0.612   1.830   3.273 -0.2995  0.3049  0.4510
  105LA     H0M 3038   0.642   1.736   3.321 -2.7292 -1.4396 -1.3121
  105LA     H0N 3039   0.549   1.784   3.197  1.8968 -0.5430 -0.8911
  105LA     C0O 3040   0.730   1.898   3.209 -0.1760 -0.4169  0.3388
  105LA     H0P 3041   0.693   1.982   3.150  0.2418 -0.3200  0.2121
  105LA     H0Q 3042   0.782   1.952   3.288 -1.8623 -0.4380  1.4800
  105LA     C0R 3043   0.813   1.816   3.118 -0.3768 -0.6314 -0.2820
  105LA     H0S 3044   0.827   1.721   3.169  1.0606 -1.3453 -1.9463
  105LA     H0T 3045   0.750   1.787   3.033 -0.4776 -1.9373  0.2270
  105LA     C0U 3046   0.944   1.879   3.082 -0.1355 -0.2360 -1.0979
  105LA     H0V 3047   0.991   1.876   3.181  2.0234  0.4495 -2.0729
  105LA     H0W 3048   0.990   1.804   3.017 -0.1477 -1.4139  0.2322
  105LA     C0X 3049   0.946   2.023   3.037 -0.4801 -0.0301 -0.0422
  105LA     H0Y 3050   0.887   2.029   2.945  0.5473 -0.1794 -0.7255
  105LA     H0Z 3051   0.884   2.081   3.106  0.3429  1.0183 -0.1652
  105LA     C10 3052   1.079   2.104   3.040  0.3083  0.1532  0.3691
  105LA     H11 3053   1.153   2.064   2.971 -0.5707  1.5082 -1.3808
  105LA     H12 3054   1.118   2.099   3.142  0.3228  0.8893  0.4092
  105LA     C13 3055   1.047   2.251   3.010  0.4296  0.1471  0.0421
  105LA     H14 3056   0.993   2.283   3.099  0.6630 -0.6973  0.5029
  105LA     H15 3057   0.987   2.274   2.922  2.4047 -0.1652 -1.4058
  105LA     C16 3058   1.174   2.332   2.987 -0.1207 -0.3093  0.1209
  105LA     H17 3059   1.216   2.318   2.887 -1.8869  2.7406 -1.1108
  105LA     H18 3060   1.248   2.302   3.062 -0.7119  0.0609  0.8600
  105LA     C19 3061   1.158   2.484   3.013 -0.0694  0.5763  0.5081
  105LA     H1A 3062   1.135   2.517   3.114  0.8191  2.8078  0.0191
  105LA     H1B 3063   1.074   2.512   2.950 -0.3485 -0.7185  0.3002
  105LA     H1C 3064   1.251   2.533   2.982 -0.0779 -0.2806 -0.9472
  106ST     H00 3065   0.591   2.699   3.557  0.3369 -1.0143 -1.9416
  106ST     C01 3066   0.566   2.596   3.582 -0.1176 -0.5309 -0.2833
  106ST     H02 3067   0.604   2.578   3.682 -1.7987  0.1272  0.4910
  106ST     H03 3068   0.458   2.587   3.599 -0.1341 -0.9190 -0.5755
  106ST     C04 3069   0.619   2.489   3.481  0.1075 -0.3354 -0.0204
  106ST     C05 3070   0.528   2.454   3.384 -0.5121  0.3991 -0.1838
  106ST     H06 3071   0.435   2.436   3.435  0.0958 -0.4196  0.6628
  106ST     H07 3072   0.567   2.369   3.329  0.7376  0.7090  0.2102
  106ST     C08 3073   0.761   2.501   3.443  0.3451  0.0173 -0.2924
  106ST     O09 3074   0.819   2.440   3.351  0.2688  0.2029  0.3896
  106ST     O0A 3075   0.816   2.579   3.530 -0.5917 -0.8863  0.4757
  106ST     C0B 3076   0.959   2.592   3.532  0.8526  0.3461 -0.0735
  106ST     H0C 3077   0.993   2.491   3.555  1.6028  0.1600 -1.9414
  106ST     H0D 3078   0.996   2.615   3.432  0.6412  2.3146  0.2768
  106ST     C0E 3079   0.998   2.676   3.654 -0.9316  0.0174 -0.0246
  106ST     H0F 3080   1.007   2.783   3.634 -4.4901  0.0333 -1.9006
  106ST     H0G 3081   1.105   2.656   3.664 -1.0974 -0.3822  0.9727
  106ST     C0H 3082   0.916   2.639   3.782  0.7863 -0.2756  0.6847
  106ST     H0I 3083   0.905   2.532   3.800 -1.8127 -0.4921 -1.7111
  106ST     H0J 3084   0.815   2.676   3.761  0.2463 -1.8173  0.4276
  106ST     C0K 3085   0.958   2.713   3.905 -0.2844 -0.3204  0.6551
  106ST     H0M 3086   1.065   2.711   3.927 -0.5706 -0.4083  2.1342
  106ST     H0N 3087   0.933   2.819   3.896  1.1897  0.3439  3.7145
  106ST     C0O 3088   0.886   2.661   4.036  0.7374 -0.3351 -0.3811
  106ST     H0P 3089   0.785   2.628   4.010 -0.6603  4.4525 -1.4571
  106ST     H0Q 3090   0.878   2.742   4.108  1.6681  1.4100 -2.1811
  106ST     C0R 3091   0.963   2.543   4.091 -0.1523 -0.2422 -0.3464
  106ST     H0S 3092   1.066   2.567   4.115  0.2686 -3.2505  0.9984
  106ST     H0T 3093   0.971   2.466   4.015  0.0118  0.6296 -1.2264
  106ST     C0U 3094   0.887   2.485   4.216 -0.1085  0.0104  0.4210
  106ST     H0V 3095   0.806   2.425   4.174 -0.1930 -0.0628  0.6882
  106ST     H0W 3096   0.840   2.556   4.283  0.1569 -0.0916  0.7123
  106ST     C0X 3097   0.985   2.394   4.284 -0.0208  0.0845  0.8522
  106ST     H0Y 3098   0.998   2.303   4.225 -0.9071 -0.2807  1.2223
  106ST     H0Z 3099   1.084   2.434   4.307  0.3058  0.1675 -0.6474
  106ST     C10 3100   0.934   2.347   4.423  0.0953 -0.4027  0.0816
  106ST     H11 3101   0.916   2.430   4.491  0.8279 -0.7810  0.7433
  106ST     H12 3102   0.831   2.317   4.406  0.5319  0.0623 -3.7203
  106ST     C13 3103   1.023   2.240   4.493  0.3767 -0.2174 -0.4117
  106ST     H14 3104   1.036   2.160   4.420 -0.7760 -1.5574  0.8185
  106ST     H15 3105   1.123   2.281   4.507  1.4990 -2.1199 -2.5070
  106ST     C16 3106   0.950   2.169   4.609 -0.1184 -0.4814 -0.1811
  106ST     H17 3107   0.978   2.208   4.707  1.2707 -1.0433 -0.3318
  106ST     H18 3108   0.844   2.193   4.603  0.1886  1.5666  2.0152
  106ST     C19 3109   0.958   2.013   4.600 -0.4924  0.1840 -0.7384
  106ST     H1A 3110   1.061   1.981   4.593 -0.7141 -0.7387  0.1452
  106ST     H1B 3111   0.918   1.984   4.697 -0.2785  1.5649 -0.2148
  106ST     C1C 3112   0.878   1.936   4.498 -0.3100  0.2849  0.2633
  106ST     H1D 3113   0.781   1.986   4.490 -0.0546  1.0145  1.6391
  106ST     H1E 3114   0.935   1.940   4.405  1.8785 -1.1709  1.4996
  106ST     C1F 3115   0.864   1.787   4.539 -0.3739  0.3556 -0.9191
  106ST     H1G 3116   0.961   1.738   4.550 -1.7740 -2.2124  0.3876
  106ST     H1H 3117   0.798   1.764   4.622 -0.0691 -1.1354 -1.0912
  106ST     C1I 3118   0.796   1.717   4.422 -1.1447 -0.0194  0.1672
  106ST     H1J 3119   0.859   1.724   4.334  0.0685 -2.4440  0.7967
  106ST     H1K 3120   0.708   1.779   4.405 -0.0614  1.1369 -1.3015
  106ST     C1M 3121   0.744   1.574   4.452  0.4589  0.8913  0.3885
  106ST     H1N 3122   0.651   1.573   4.510  0.1030  0.9279 -0.1808
  106ST     H1O 3123   0.818   1.506   4.494 -0.5715 -1.6238 -1.7113
  106ST     C1P 3124   0.710   1.505   4.316 -0.6042 -0.8026 -0.3175
  106ST     H1Q 3125   0.625   1.544   4.260 -0.8497  0.6408  1.0244
  106ST     H1R 3126   0.797   1.503   4.250 -0.0169  0.0944  0.4153
  106ST     C1S 3127   0.685   1.355   4.333  1.0588  0.9877  0.1420
  106ST     H1T 3128   0.772   1.304   4.376 -0.3405 -0.8954  0.8122
  106ST     H1U 3129   0.657   1.291   4.249  1.4637  1.1085 -0.0881
  106ST     H1V 3130   0.618   1.335   4.416  0.7912 -0.4470 -0.3954
  107ST     H00 3131   0.334   2.470   3.109  2.0143  0.4841  0.4329
  107ST     C01 3132   0.375   2.443   3.207  0.4715 -0.0148  0.9532
  107ST     H02 3133   0.301   2.432   3.286 -0.1691 -2.5755  0.0403
  107ST     H03 3134   0.413   2.343   3.188  0.2222 -0.2990  1.9335
  107ST     C04 3135   0.488   2.542   3.253  0.0630  0.7289  0.2494
  107ST     C05 3136   0.455   2.666   3.302  0.7836  0.0795 -0.8894
  107ST     H06 3137   0.386   2.644   3.382 -0.9216  1.0329 -2.0692
  107ST     H07 3138   0.544   2.725   3.311  1.8190 -1.4601 -0.8238
  107ST     C08 3139   0.603   2.532   3.163 -0.0740 -0.0798  0.1032
  107ST     O09 3140   0.628   2.439   3.089 -0.0348 -0.1292 -0.2414
  107ST     O0A 3141   0.681   2.644   3.169 -0.4940 -0.1286 -0.1313
  107ST     C0B 3142   0.792   2.659   3.079  0.5019 -0.8334  0.2189
  107ST     H0C 3143   0.866   2.579   3.080  1.0406 -0.4183 -2.5074
  107ST     H0D 3144   0.755   2.662   2.976  0.6568  1.8374  0.2228
  107ST     C0E 3145   0.851   2.800   3.088  0.4321 -0.0980 -0.1647
  107ST     H0F 3146   0.771   2.869   3.061 -0.6510 -0.9385  0.8423
  107ST     H0G 3147   0.915   2.820   3.002 -0.9559 -0.3234 -1.2602
  107ST     C0H 3148   0.921   2.829   3.218 -0.1009 -0.8333  0.0095
  107ST     H0I 3149   1.006   2.895   3.196 -0.5223 -0.4188 -0.3801
  107ST     H0J 3150   0.960   2.732   3.251 -0.1884 -0.2506  1.8587
  107ST     C0K 3151   0.827   2.886   3.314 -0.2226 -0.0126 -0.1727
  107ST     H0M 3152   0.760   2.806   3.349 -1.1925  0.8874  0.0578
  107ST     H0N 3153   0.762   2.957   3.263 -0.1056  3.0020  3.6827
  107ST     C0O 3154   0.895   2.954   3.432 -0.3636  0.5617  0.0139
  107ST     H0P 3155   0.932   3.052   3.400  2.1764 -0.6041 -0.7604
  107ST     H0Q 3156   0.987   2.897   3.443 -0.5158  0.4546  0.7350
  107ST     C0R 3157   0.823   2.961   3.564 -0.9120 -0.9790  0.5669
  107ST     H0S 3158   0.792   2.860   3.589 -1.1055 -1.0975 -0.1528
  107ST     H0T 3159   0.896   2.992   3.639 -0.3015 -2.4774  0.6023
  107ST     C0U 3160   0.707   3.064   3.562  0.5973 -0.2771  0.2406
  107ST     H0V 3161   0.649   3.039   3.651  2.4326 -1.3131  1.1828
  107ST     H0W 3162   0.646   3.051   3.473  0.7717  3.1229 -0.4402
  107ST     C0X 3163   0.747   3.211   3.581  0.5504 -0.0854  0.1315
  107ST     H0Y 3164   0.745   3.233   3.688  2.3302 -0.0019  0.1515
  107ST     H0Z 3165   0.844   3.237   3.540  0.3569  0.2892 -0.0967
  107ST     C10 3166   0.641   3.303   3.525 -0.4922 -1.0238  0.1456
  107ST     H11 3167   0.617   3.275   3.422 -1.1465  0.6861 -0.1833
  107ST     H12 3168   0.547   3.295   3.580 -0.9726 -0.2781 -0.5626
  107ST     C13 3169   0.674   3.453   3.540  0.8704 -0.0871  0.4885
  107ST     H14 3170   0.722   3.467   3.637  2.6173  0.9764 -0.5004
  107ST     H15 3171   0.748   3.477   3.464  0.8319 -1.4991 -0.0011
  107ST     C16 3172   0.555   3.557   3.504  0.1136  0.3843 -0.2512
  107ST     H17 3173   0.541   3.556   3.396  0.0517 -1.9110 -0.2531
  107ST     H18 3174   0.466   3.514   3.551  0.8321  1.9271  2.6021
  107ST     C19 3175   0.593   3.683   3.566  0.1475 -0.3268  0.4705
  107ST     H1A 3176   0.564   3.682   3.672 -1.7811  0.5526 -0.0343
  107ST     H1B 3177   0.695   3.715   3.543 -0.9505  3.6628  0.7810
  107ST     C1C 3178   0.516   3.806   3.511 -0.2433 -0.4003  0.1864
  107ST     H1D 3179   0.532   3.799   3.404  0.3900 -0.9702  0.3139
  107ST     H1E 3180   0.409   3.804   3.534 -0.4954  0.3576 -0.8996
  107ST     C1F 3181   0.556   3.942   3.569  0.5334 -0.5688  0.8821
  107ST     H1G 3182   0.664   3.959   3.565  0.4883 -0.6115 -1.5410
  107ST     H1H 3183   0.516   4.023   3.509  0.9476 -0.0242  1.3391
  107ST     C1I 3184   0.508   3.965   3.711  0.6984 -0.5700 -0.0374
  107ST     H1J 3185   0.422   3.903   3.735  0.6940 -0.9359 -0.9949
  107ST     H1K 3186   0.478   4.069   3.725  0.0862 -0.4149 -2.3323
  107ST     C1M 3187   0.612   3.940   3.824 -0.1911 -0.1464  0.7044
  107ST     H1N 3188   0.699   4.002   3.800 -1.7147  2.3982  1.5970
  107ST     H1O 3189   0.637   3.836   3.800  2.4694  0.4245  0.8225
  107ST     C1P 3190   0.551   3.970   3.964  0.0974 -0.8761  0.6490
  107ST     H1Q 3191   0.540   4.078   3.954  0.7518 -0.9201 -0.6075
  107ST     H1R 3192   0.455   3.919   3.978 -1.0774  0.5923 -1.7886
  107ST     C1S 3193   0.643   3.919   4.073 -0.0489 -0.0520  0.1837
  107ST     H1T 3194   0.629   3.811   4.082 -0.1803 -0.0838 -0.3772
  107ST     H1U 3195   0.603   3.953   4.169  1.3219  3.0883 -0.2997
  107ST     H1V 3196   0.750   3.934   4.060 -0.2606  1.1934 -0.1356
  108ST     H00 3197   0.192   2.633   3.171 -4.6591  0.4517 -0.4297
  108ST     C01 3198   0.215   2.720   3.232 -0.1978 -0.2799 -0.8936
  108ST     H02 3199   0.161   2.809   3.200  0.9559  2.3622  3.9279
  108ST     H03 3200   0.178   2.718   3.335  1.1940 -0.2058 -0.3762
  108ST     C04 3201   0.360   2.765   3.202 -0.4750 -0.3000 -0.2411
  108ST     C05 3202   0.415   2.750   3.072  0.0601 -0.6877 -0.0227
  108ST     H06 3203   0.411   2.649   3.034 -2.3380 -0.0054 -1.5996
  108ST     H07 3204   0.515   2.792   3.069  1.6906 -4.3208 -0.1483
  108ST     C08 3205   0.406   2.888   3.270 -0.0372  0.2643  0.8143
  108ST     O09 3206   0.480   2.979   3.226  0.0325  0.1944  0.2114
  108ST     O0A 3207   0.330   2.906   3.383  0.8523  0.5723 -0.4514
  108ST     C0B 3208   0.340   3.031   3.452  0.6255  0.2990  0.3508
  108ST     H0C 3209   0.301   3.006   3.550 -0.0698 -3.0122 -0.7201
  108ST     H0D 3210   0.440   3.074   3.451  0.8182 -0.1507 -0.1660
  108ST     C0E 3211   0.233   3.128   3.392 -0.3044  0.1148  0.3879
  108ST     H0F 3212   0.257   3.130   3.286 -0.3751 -1.4431  0.3196
  108ST     H0G 3213   0.259   3.221   3.443  0.9653  1.1046 -1.9887
  108ST     C0H 3214   0.088   3.091   3.423  0.0766 -0.2381  0.4945
  108ST     H0I 3215   0.059   3.142   3.515  0.7682 -1.1628  1.2400
  108ST     H0J 3216   0.086   2.985   3.448 -0.4116 -0.0776  1.1621
  108ST     C0K 3217  -0.007   3.131   3.309  0.3251 -0.2693  0.2847
  108ST     H0M 3218   0.007   3.236   3.285 -0.9052  0.2191  1.6188
  108ST     H0N 3219   0.015   3.078   3.216  0.7132 -1.6496  1.1474
  108ST     C0O 3220  -0.155   3.120   3.345  0.0394  0.1451  0.4228
  108ST     H0P 3221  -0.177   3.201   3.415 -1.8864  2.3344 -2.6441
  108ST     H0Q 3222  -0.166   3.029   3.405 -0.9192 -0.5042 -0.7243
  108ST     C0R 3223  -0.249   3.122   3.225  0.4376 -0.7262  0.0087
  108ST     H0S 3224  -0.222   3.197   3.150  3.3257  1.3318  2.9541
  108ST     H0T 3225  -0.348   3.144   3.265 -1.0548 -2.6922 -2.5142
  108ST     C0U 3226  -0.248   2.987   3.158 -0.1399 -0.5108  0.1492
  108ST     H0V 3227  -0.294   2.916   3.227 -0.9343 -0.2937 -0.1450
  108ST     H0W 3228  -0.147   2.961   3.126  0.3827  0.9140  0.6143
  108ST     C0X 3229  -0.337   2.986   3.034 -0.3931 -0.8317 -0.3549
  108ST     H0Y 3230  -0.443   2.995   3.057  0.4531  2.5922  2.6541
  108ST     H0Z 3231  -0.310   3.074   2.975 -1.6227 -1.4128 -1.8122
  108ST     C10 3232  -0.335   2.860   2.955 -0.1780 -0.1323  0.1466
  108ST     H11 3233  -0.387   2.874   2.860  0.0787  1.4885  0.2407
  108ST     H12 3234  -0.236   2.831   2.920 -0.2024 -0.7984  0.6121
  108ST     C13 3235  -0.398   2.741   3.020  0.2999  0.4398  0.0334
  108ST     H14 3236  -0.347   2.713   3.113  1.7396 -0.5776 -1.0426
  108ST     H15 3237  -0.502   2.764   3.043 -0.6072 -0.6298 -2.7897
  108ST     C16 3238  -0.384   2.602   2.937  0.0244 -0.4575  0.3639
  108ST     H17 3239  -0.435   2.521   2.988 -0.9023 -1.8112 -2.6128
  108ST     H18 3240  -0.446   2.609   2.847 -1.2571 -2.9580  1.0037
  108ST     C19 3241  -0.238   2.559   2.908 -0.3130  0.4539  0.3548
  108ST     H1A 3242  -0.234   2.459   2.864 -0.1101 -0.3733  2.2164
  108ST     H1B 3243  -0.189   2.610   2.825 -0.1418 -1.7264 -0.9226
  108ST     C1C 3244  -0.141   2.565   3.023  0.1742 -0.1068 -0.5227
  108ST     H1D 3245  -0.044   2.537   2.981 -0.2106 -0.8983 -0.8751
  108ST     H1E 3246  -0.122   2.670   3.049  0.6914  0.2929 -2.3969
  108ST     C1F 3247  -0.185   2.466   3.131  0.5025 -0.4880  0.1266
  108ST     H1G 3248  -0.275   2.497   3.184 -0.1406 -2.5977  0.3207
  108ST     H1H 3249  -0.225   2.372   3.093 -0.4661  0.2132 -0.6453
  108ST     C1I 3250  -0.069   2.434   3.232  0.8986 -0.1136  0.3270
  108ST     H1J 3251  -0.038   2.513   3.300  0.1656  0.8036 -0.3891
  108ST     H1K 3252   0.015   2.399   3.171  0.0609 -0.4336 -0.6652
  108ST     C1M 3253  -0.105   2.320   3.323  0.8603  0.3834 -0.2620
  108ST     H1N 3254  -0.092   2.233   3.258 -1.7608  0.8850 -1.5504
  108ST     H1O 3255  -0.211   2.326   3.351 -0.2348  0.0562 -4.0389
  108ST     C1P 3256  -0.015   2.321   3.449 -0.1732 -0.2576 -0.1419
  108ST     H1Q 3257  -0.015   2.219   3.487 -2.0565 -0.3738 -0.4048
  108ST     H1R 3258   0.086   2.357   3.430  0.0068  0.6277  2.2641
  108ST     C1S 3259  -0.078   2.421   3.550  0.1744  0.3328 -0.1260
  108ST     H1T 3260  -0.038   2.389   3.647  1.8520  1.2856 -0.4785
  108ST     H1U 3261  -0.185   2.407   3.565  0.2877  0.7218  1.0419
  108ST     H1V 3262  -0.061   2.527   3.531  0.6944  0.1505 -0.7108
  109EH     H00 3263   0.180   2.738   2.821 -0.1297  3.3115 -0.0555
  109EH     C01 3264   0.208   2.724   2.925  0.0844  0.5926 -0.4401
  109EH     H02 3265   0.125   2.770   2.979 -0.5464 -0.1756 -0.7321
  109EH     H03 3266   0.216   2.619   2.952 -0.9862  0.8881  1.0911
  109EH     C04 3267   0.343   2.803   2.935  0.0352 -0.7436  0.0304
  109EH     C05 3268   0.339   2.940   2.963  0.8583 -0.0201 -0.3158
  109EH     H06 3269   0.437   2.985   2.972  1.2785 -1.1340  0.6787
  109EH     H07 3270   0.269   2.958   3.043  2.6559  1.8273  0.9058
  109EH     C08 3271   0.442   2.752   2.839  0.5801 -0.2388 -0.5626
  109EH     O09 3272   0.539   2.819   2.803  0.5255  0.3407 -0.5291
  109EH     O0A 3273   0.410   2.629   2.790 -0.0486 -0.5859 -0.4023
  109EH     C0B 3274   0.502   2.549   2.713  0.2497  0.9055  0.2729
  109EH     H0C 3275   0.581   2.513   2.779 -0.5706 -0.7008  0.4078
  109EH     H0D 3276   0.543   2.614   2.636 -0.4876 -0.0021 -0.9083
  109EH     C0E 3277   0.424   2.434   2.641 -0.8249  0.7972 -0.6144
  109EH     H0F 3278   0.491   2.356   2.603 -0.4002  0.1352  1.4384
  109EH     C0G 3279   0.320   2.358   2.728  0.1975 -0.3937 -0.1108
  109EH     H0H 3280   0.279   2.270   2.679  0.8773 -0.2368 -0.9772
  109EH     H0I 3281   0.238   2.424   2.758  0.5244 -0.8826  1.9350
  109EH     C0J 3282   0.379   2.288   2.849 -0.7840 -0.2274  0.3254
  109EH     H0K 3283   0.313   2.256   2.929  0.9596 -3.0319  0.6966
  109EH     H0M 3284   0.443   2.349   2.912 -0.1645  0.1390 -0.6543
  109EH     H0N 3285   0.439   2.203   2.817 -1.3308  0.2188 -2.0133
  109EH     C0O 3286   0.354   2.481   2.519 -0.2984 -0.6819  0.2820
  109EH     H0P 3287   0.276   2.413   2.485 -0.6268 -0.2115  0.0880
  109EH     H0Q 3288   0.310   2.577   2.547  0.4729  0.7874 -3.2882
  109EH     C0R 3289   0.452   2.507   2.398 -0.4075 -0.2931  0.3260
  109EH     H0S 3290   0.475   2.412   2.349 -0.1675  0.3045 -0.7255
  109EH     H0T 3291   0.551   2.541   2.429 -0.5539  0.9550 -0.5206
  109EH     C0U 3292   0.407   2.607   2.290  0.2777 -0.3725  0.0605
  109EH     H0V 3293   0.317   2.573   2.237 -0.7414  2.1034  0.1636
  109EH     H0W 3294   0.388   2.701   2.340  0.6184  1.2901 -2.7950
  109EH     C0X 3295   0.503   2.615   2.178  0.2486  0.1053 -0.3438
  109EH     H0Y 3296   0.604   2.643   2.206  1.4285 -2.8581 -1.3659
  109EH     H0Z 3297   0.460   2.674   2.098  0.9944 -1.0733 -1.6405
  109EH     H10 3298   0.515   2.526   2.116 -0.4477 -0.7914  0.7892
  110LA     H00 3299   0.100   2.918   2.819 -0.4494 -0.0052 -1.8488
  110LA     C01 3300   0.118   3.014   2.867 -0.3489 -0.6166 -0.6581
  110LA     H02 3301   0.057   3.091   2.820 -1.3443 -0.1504  1.3465
  110LA     H03 3302   0.075   3.000   2.966 -0.8782  1.6089 -0.5403
  110LA     C04 3303   0.270   3.049   2.864  0.3130  0.3162  0.3058
  110LA     C05 3304   0.313   3.170   2.921  0.3233 -0.1213  0.3369
  110LA     H06 3305   0.299   3.187   3.027  0.6818 -1.1841  0.5636
  110LA     H07 3306   0.418   3.181   2.902 -0.4304  0.4415 -3.8560
  110LA     C08 3307   0.327   3.029   2.735 -0.6112 -0.4933  0.3443
  110LA     O09 3308   0.439   3.068   2.695 -0.1675  0.2357  0.1575
  110LA     O0A 3309   0.246   2.959   2.646  0.5388 -0.0592  0.2440
  110LA     C0B 3310   0.293   2.924   2.521 -0.6904 -0.1824 -0.1533
  110LA     H0C 3311   0.234   2.840   2.483  0.1956 -0.4747 -0.9222
  110LA     H0D 3312   0.393   2.880   2.529  0.1877  2.1350  1.9556
  110LA     C0E 3313   0.291   3.047   2.428  0.0379  0.7325  0.4170
  110LA     H0F 3314   0.193   3.093   2.441  0.7743  2.0336  1.5005
  110LA     H0G 3315   0.363   3.125   2.453 -0.8610  2.1580 -1.3176
  110LA     C0H 3316   0.309   3.022   2.272  0.8384 -0.1698 -0.0866
  110LA     H0I 3317   0.398   2.964   2.249 -0.8177 -3.0590  0.5316
  110LA     H0J 3318   0.222   2.964   2.241  0.1163  0.3276  0.9686
  110LA     C0K 3319   0.316   3.150   2.192  0.2508 -0.1633  0.2679
  110LA     H0M 3320   0.250   3.143   2.106  0.1211 -0.1777  0.3669
  110LA     H0N 3321   0.268   3.229   2.251 -2.8090  0.0571 -2.3822
  110LA     C0O 3322   0.449   3.209   2.149 -0.3230 -0.4085  0.5201
  110LA     H0P 3323   0.513   3.224   2.236 -2.0373 -2.2350  2.1382
  110LA     H0Q 3324   0.514   3.144   2.091  0.4254 -0.7575  1.7417
  110LA     C0R 3325   0.429   3.334   2.064 -0.8052 -0.5475 -0.4880
  110LA     H0S 3326   0.398   3.316   1.961 -4.6842  0.6875  0.3686
  110LA     H0T 3327   0.370   3.416   2.105 -0.0140 -0.1167 -0.2150
  110LA     C0U 3328   0.572   3.395   2.050 -0.1346 -0.1130  0.2968
  110LA     H0V 3329   0.599   3.429   2.150  1.0686 -1.1946  0.3487
  110LA     H0W 3330   0.639   3.317   2.017  1.0227  1.9569 -2.4398
  110LA     C0X 3331   0.570   3.513   1.955 -1.0500 -0.4852 -0.0555
  110LA     H0Y 3332   0.519   3.495   1.860  0.8825 -1.4284 -0.9486
  110LA     H0Z 3333   0.516   3.597   1.999  0.7966  0.1345  1.0761
  110LA     C10 3334   0.708   3.572   1.916 -0.6761 -0.3304 -0.1599
  110LA     H11 3335   0.696   3.651   1.842  1.1757  0.8707  0.8080
  110LA     H12 3336   0.769   3.499   1.863  1.4972  0.8694  0.6501
  110LA     C13 3337   0.783   3.627   2.034  0.1341  0.6343  0.6115
  110LA     H14 3338   0.778   3.553   2.114  0.0107 -1.0786 -0.9415
  110LA     H15 3339   0.732   3.718   2.065 -1.9529 -0.3748  0.2068
  110LA     C16 3340   0.939   3.654   2.004  0.0306  0.2388 -0.0714
  110LA     H17 3341   0.991   3.564   1.972  0.2363  0.4888 -0.4387
  110LA     H18 3342   0.992   3.683   2.095  0.1822 -2.4992  0.7731
  110LA     C19 3343   0.951   3.766   1.899  0.0549  0.6806 -0.2129
  110LA     H1A 3344   1.055   3.796   1.893  0.9450 -1.9295  1.2110
  110LA     H1B 3345   0.896   3.855   1.931  1.2415  0.5621  2.2026
  110LA     H1C 3346   0.919   3.733   1.800  0.9618 -1.2342  0.1013
  111ST     H00 3347   0.084   3.410   2.992 -1.2365 -0.5680  0.8797
  111ST     C01 3348   0.103   3.317   2.939 -0.3034 -0.7026  1.4533
  111ST     H02 3349   0.099   3.242   3.018  2.4716 -1.9245  0.4990
  111ST     H03 3350   0.022   3.291   2.871 -0.8523 -1.6465  2.4508
  111ST     C04 3351   0.246   3.313   2.874 -0.6521  0.1772 -0.6524
  111ST     C05 3352   0.254   3.312   2.737  0.0172 -0.3767  0.1552
  111ST     H06 3353   0.192   3.237   2.692 -0.8157  1.2364 -1.4592
  111ST     H07 3354   0.356   3.319   2.702 -0.5201  1.7822 -1.1194
  111ST     C08 3355   0.343   3.404   2.933  0.1335 -0.2896 -0.5822
  111ST     O09 3356   0.464   3.417   2.907 -0.3591  0.5408 -0.0378
  111ST     O0A 3357   0.290   3.484   3.024  0.0908  0.7486 -0.3102
  111ST     C0B 3358   0.362   3.580   3.096 -0.2258  0.2274 -0.0604
  111ST     H0C 3359   0.457   3.537   3.129 -0.3630  0.7609  1.0676
  111ST     H0D 3360   0.375   3.659   3.022  0.4646  3.1595  3.0573
  111ST     C0E 3361   0.273   3.643   3.208 -0.6626 -0.0815 -0.2012
  111ST     H0F 3362   0.337   3.698   3.277  0.0846 -1.5385  0.2860
  111ST     H0G 3363   0.233   3.567   3.275 -0.4660 -1.7549 -1.9176
  111ST     C0H 3364   0.156   3.724   3.157  0.0276 -0.5192 -0.2371
  111ST     H0I 3365   0.091   3.644   3.120  0.5087 -1.3514  0.6729
  111ST     H0J 3366   0.188   3.783   3.072  0.2175 -1.6769 -0.9839
  111ST     C0K 3367   0.090   3.811   3.271 -0.4692  0.3072 -0.3044
  111ST     H0M 3368  -0.002   3.842   3.221  0.1678 -2.5326 -3.4736
  111ST     H0N 3369   0.058   3.752   3.357  1.4946  0.0636  0.2897
  111ST     C0O 3370   0.182   3.924   3.313 -0.0217  0.4672 -0.2968
  111ST     H0P 3371   0.234   3.968   3.228 -0.0098  1.9889  0.4751
  111ST     H0Q 3372   0.262   3.893   3.381  0.6267  0.5651 -1.0077
  111ST     C0R 3373   0.099   4.037   3.382 -0.0674 -0.0337  0.7158
  111ST     H0S 3374   0.030   3.999   3.457 -2.1004 -0.1992 -1.2041
  111ST     H0T 3375   0.032   4.092   3.316 -0.8497  0.7795  2.1453
  111ST     C0U 3376   0.186   4.147   3.437  0.2124  0.1954 -0.5368
  111ST     H0V 3377   0.254   4.198   3.369  0.6214 -0.2884 -0.4930
  111ST     H0W 3378   0.251   4.109   3.516  1.3668  0.1730 -1.4871
  111ST     C0X 3379   0.094   4.256   3.501 -0.2306  0.5433 -0.3551
  111ST     H0Y 3380   0.038   4.305   3.421 -0.4596 -0.0314 -0.5466
  111ST     H0Z 3381   0.020   4.213   3.567 -0.7566  1.2403 -0.4826
  111ST     C10 3382   0.170   4.364   3.586 -0.2390 -0.6806  0.5338
  111ST     H11 3383   0.259   4.397   3.531  0.0810 -2.7294 -0.1977
  111ST     H12 3384   0.094   4.439   3.607  0.7379  0.7369 -0.8227
  111ST     C13 3385   0.208   4.303   3.720 -0.5607  0.8459 -0.3029
  111ST     H14 3386   0.130   4.238   3.760  0.1319  0.5512  0.5886
  111ST     H15 3387   0.298   4.246   3.697  0.5087  2.1885  0.4619
  111ST     C16 3388   0.242   4.399   3.830 -0.3550 -0.8341 -0.1427
  111ST     H17 3389   0.233   4.499   3.787 -2.1669 -0.7719  0.3593
  111ST     H18 3390   0.172   4.394   3.913  0.1755 -0.1801  0.3590
  111ST     C19 3391   0.381   4.376   3.898 -0.1955  0.0101  1.1099
  111ST     H1A 3392   0.385   4.274   3.936  1.1905 -0.1810  0.4606
  111ST     H1B 3393   0.458   4.380   3.821 -0.3708  1.7440  1.0055
  111ST     C1C 3394   0.402   4.471   4.016  0.0427  0.4586 -0.4855
  111ST     H1D 3395   0.382   4.574   3.986 -1.1244  0.6698  0.9947
  111ST     H1E 3396   0.337   4.437   4.097  0.9034 -2.0418 -0.8235
  111ST     C1F 3397   0.546   4.468   4.079  0.1042 -0.1062 -0.3596
  111ST     H1G 3398   0.606   4.540   4.023  0.3122  0.5027  0.6363
  111ST     H1H 3399   0.535   4.513   4.177 -0.3191 -0.6901 -0.1386
  111ST     C1I 3400   0.620   4.328   4.094 -0.3928 -0.0858  0.6218
  111ST     H1J 3401   0.624   4.278   3.998  0.0607  2.2191 -0.5972
  111ST     H1K 3402   0.562   4.281   4.173 -2.7684  1.2351 -0.2769
  111ST     C1M 3403   0.753   4.347   4.159  0.5252 -0.0400  0.2267
  111ST     H1N 3404   0.738   4.384   4.261 -2.0299  1.3631 -0.6180
  111ST     H1O 3405   0.816   4.426   4.118 -0.5114 -0.0197 -1.3359
  111ST     C1P 3406   0.829   4.217   4.181 -0.6845  0.2261  0.5838
  111ST     H1Q 3407   0.903   4.239   4.258 -1.3168 -0.1465  1.3156
  111ST     H1R 3408   0.768   4.137   4.224 -1.0772 -0.4575 -1.2213
  111ST     C1S 3409   0.905   4.181   4.055  0.5117  0.0714 -0.5440
  111ST     H1T 3410   0.826   4.147   3.988 -1.2729  1.4392  0.8392
  111ST     H1U 3411   0.990   4.113   4.061 -0.0373 -0.6173 -0.6366
  111ST     H1V 3412   0.945   4.265   3.997 -1.1603 -1.7061 -4.4778
  112EH     H00 3413   0.365   3.408   2.493  0.4831 -0.3004  0.4447
  112EH     C01 3414   0.257   3.396   2.505  0.4455 -0.6644 -0.2472
  112EH     H02 3415   0.210   3.468   2.439  0.1455 -0.7389 -0.1159
  112EH     H03 3416   0.222   3.297   2.473  0.2913 -0.4464 -0.7522
  112EH     C04 3417   0.195   3.435   2.641 -0.0868 -0.5108 -0.2613
  112EH     C05 3418   0.250   3.545   2.703  0.0458  0.4017  0.1664
  112EH     H06 3419   0.199   3.565   2.796 -0.3839  1.1531 -0.2265
  112EH     H07 3420   0.358   3.538   2.706  0.1784  1.3865 -1.4043
  112EH     C08 3421   0.053   3.419   2.645  0.7384  0.3990 -0.2413
  112EH     O09 3422  -0.028   3.472   2.724  0.0136  0.2044  0.7496
  112EH     O0A 3423   0.007   3.331   2.549 -0.2189 -0.0832  0.1011
  112EH     C0B 3424  -0.134   3.309   2.541  0.4335  0.0132 -0.4600
  112EH     H0C 3425  -0.184   3.391   2.489 -0.9756  0.2482  1.2195
  112EH     H0D 3426  -0.192   3.305   2.633 -1.2048 -1.2228 -1.5070
  112EH     C0E 3427  -0.155   3.181   2.457 -1.1353  0.9137 -0.2119
  112EH     H0F 3428  -0.264   3.179   2.451 -1.0817  1.8274 -1.7088
  112EH     C0G 3429  -0.100   3.199   2.316 -0.3425 -0.4542 -0.1462
  112EH     H0H 3430  -0.097   3.110   2.253 -0.3403  0.3952 -1.3696
  112EH     H0I 3431   0.007   3.221   2.313 -0.6270  0.9349 -4.5206
  112EH     C0J 3432  -0.169   3.307   2.232 -0.1187 -0.3045 -0.7772
  112EH     H0K 3433  -0.264   3.287   2.183 -0.1994 -0.4572 -0.5589
  112EH     H0M 3434  -0.114   3.317   2.138  0.2181  1.5450 -0.4070
  112EH     H0N 3435  -0.176   3.408   2.274 -1.8788 -0.2888 -1.0724
  112EH     C0O 3436  -0.091   3.056   2.528  0.2910 -0.3174 -0.1747
  112EH     H0P 3437   0.016   3.074   2.539  0.1684 -0.1056  0.7087
  112EH     H0Q 3438  -0.128   3.062   2.631 -1.1427  2.5448 -0.8141
  112EH     C0R 3439  -0.133   2.924   2.461  0.3697  0.8268  1.0030
  112EH     H0S 3440  -0.087   2.923   2.363 -0.7011  2.4812  0.4661
  112EH     H0T 3441  -0.242   2.919   2.457  0.5086 -0.5533 -2.5575
  112EH     C0U 3442  -0.084   2.788   2.536  0.2632 -0.3939 -0.1167
  112EH     H0V 3443   0.024   2.772   2.528  0.8871  2.7636  1.2007
  112EH     H0W 3444  -0.119   2.805   2.637 -1.5524 -1.7809 -0.4863
  112EH     C0X 3445  -0.175   2.669   2.489 -0.3447 -0.1051  0.5975
  112EH     H0Y 3446  -0.168   2.667   2.380  1.7930  2.4809  0.6538
  112EH     H0Z 3447  -0.279   2.688   2.518 -0.4161 -1.5717  1.3563
  112EH     H10 3448  -0.154   2.570   2.529  1.6845  0.9411  2.1705
  113LA     H00 3449   0.077   3.805   2.548 -0.7671 -0.9907  0.0110
  113LA     C01 3450   0.101   3.713   2.602 -0.6869 -0.3462  1.0813
  113LA     H02 3451   0.041   3.706   2.692 -1.2757 -2.3575  0.5637
  113LA     H03 3452   0.060   3.640   2.533  0.7735  0.8221 -1.1011
  113LA     C04 3453   0.244   3.698   2.646  0.3452  0.4837  0.3943
  113LA     C05 3454   0.296   3.771   2.749  0.2558 -0.2136  0.4676
  113LA     H06 3455   0.232   3.766   2.836 -1.2761  0.3177 -0.6234
  113LA     H07 3456   0.402   3.752   2.759 -0.2564 -2.9073  1.2295
  113LA     C08 3457   0.333   3.689   2.526  0.6770 -0.1620 -0.0589
  113LA     O09 3458   0.288   3.690   2.408  0.2305 -0.1829  0.2471
  113LA     O0A 3459   0.468   3.664   2.557 -0.5177 -0.3297  0.3261
  113LA     C0B 3460   0.559   3.627   2.455  0.2302 -0.7154 -0.3110
  113LA     H0C 3461   0.552   3.683   2.361  0.5956 -2.7380 -1.5722
  113LA     H0D 3462   0.527   3.531   2.416 -0.8331 -0.9960  1.2091
  113LA     C0E 3463   0.703   3.627   2.505 -0.6242  0.0528  0.2575
  113LA     H0F 3464   0.769   3.605   2.421 -1.1919  0.8784 -0.4131
  113LA     H0G 3465   0.735   3.730   2.524 -0.6870  0.5447 -2.1750
  113LA     C0H 3466   0.730   3.546   2.632 -0.3761 -0.1621  0.3975
  113LA     H0I 3467   0.650   3.563   2.704 -1.6876 -0.7647 -0.9059
  113LA     H0J 3468   0.717   3.445   2.593  0.4563 -0.5854  1.1950
  113LA     C0K 3469   0.862   3.573   2.710 -0.1929  0.0956 -1.1613
  113LA     H0M 3470   0.898   3.475   2.740 -1.4867 -0.2052 -0.5251
  113LA     H0N 3471   0.932   3.607   2.634  1.7652  0.2946  0.6803
  113LA     C0O 3472   0.865   3.673   2.824  0.4014  0.4857 -0.8913
  113LA     H0P 3473   0.809   3.636   2.910  1.1987 -1.3740 -1.1518
  113LA     H0Q 3474   0.966   3.687   2.865  0.3443 -1.2037 -0.1248
  113LA     C0R 3475   0.790   3.807   2.796  0.3352 -0.5717 -0.1324
  113LA     H0S 3476   0.817   3.850   2.699 -1.0039 -0.5917 -0.5247
  113LA     H0T 3477   0.681   3.795   2.799  0.1364  1.0922 -0.4207
  113LA     C0U 3478   0.828   3.919   2.897 -0.1475  0.3066  0.2929
  113LA     H0V 3479   0.936   3.905   2.910  0.1969  0.7975 -1.7546
  113LA     H0W 3480   0.813   4.015   2.848 -0.3715 -0.4312 -1.1394
  113LA     C0X 3481   0.750   3.891   3.025  0.1405  0.7792 -0.0457
  113LA     H0Y 3482   0.659   3.833   3.009 -0.3801  1.7283 -0.5933
  113LA     H0Z 3483   0.817   3.835   3.091  1.3636  3.7094  1.2588
  113LA     C10 3484   0.717   4.017   3.090 -0.6808  0.0986 -0.3955
  113LA     H11 3485   0.674   4.062   3.001  1.0197 -0.9749 -1.7872
  113LA     H12 3486   0.803   4.084   3.097 -0.1855 -0.6328  0.6472
  113LA     C13 3487   0.618   4.015   3.203  0.1764  0.1312 -1.0198
  113LA     H14 3488   0.664   3.956   3.282 -0.1206  2.7860  1.2107
  113LA     H15 3489   0.530   3.960   3.169 -0.4861  0.6181 -0.1205
  113LA     C16 3490   0.571   4.155   3.252  0.3279  0.0666  0.7993
  113LA     H17 3491   0.485   4.137   3.317  2.5544 -1.7042  3.3421
  113LA     H18 3492   0.524   4.221   3.178 -0.1785  0.4977  1.4965
  113LA     C19 3493   0.684   4.224   3.318  0.2093  0.0308  0.6211
  113LA     H1A 3494   0.634   4.276   3.401 -0.0415  0.5809  0.1261
  113LA     H1B 3495   0.742   4.297   3.262 -0.8552  1.1883  0.9803
  113LA     H1C 3496   0.743   4.143   3.360  0.7386 -0.6317 -1.3691
  114EH     H00 3497   0.419   4.057   2.867  0.9292 -0.6864 -1.3561
  114EH     C01 3498   0.362   3.964   2.877 -0.1697  0.1385  0.1340
  114EH     H02 3499   0.441   3.893   2.902  0.2928  1.1708  1.7291
  114EH     H03 3500   0.292   3.957   2.960  0.0890 -2.3342  0.1826
  114EH     C04 3501   0.308   3.931   2.737 -0.8782  0.0428 -0.2203
  114EH     C05 3502   0.181   3.980   2.710  0.4521 -1.0712 -0.0996
  114EH     H06 3503   0.169   3.974   2.603  1.3321  1.3978 -0.3702
  114EH     H07 3504   0.110   3.938   2.779  0.7789  0.0005  0.9285
  114EH     C08 3505   0.416   3.964   2.638 -0.1006  0.8966  0.5067
  114EH     O09 3506   0.536   3.961   2.663 -0.0279 -0.3339  0.2489
  114EH     O0A 3507   0.375   3.987   2.512 -0.0130 -0.3407  0.2027
  114EH     C0B 3508   0.461   4.022   2.405 -0.8376 -0.9581 -0.1010
  114EH     H0C 3509   0.560   3.979   2.419 -0.9311 -0.7349  1.3238
  114EH     H0D 3510   0.475   4.130   2.403 -0.7794 -0.9891 -1.6120
  114EH     C0E 3511   0.388   3.981   2.279  0.5864 -0.0342  0.1713
  114EH     H0F 3512   0.385   3.874   2.301  0.2185  0.0131  0.3653
  114EH     C0G 3513   0.240   4.029   2.263  0.2908  0.3179 -0.3395
  114EH     H0H 3514   0.176   3.992   2.343 -0.3368  1.6542 -0.1907
  114EH     H0I 3515   0.190   3.991   2.174  1.2189  2.6468 -1.9130
  114EH     C0J 3516   0.246   4.186   2.251 -0.1549  0.6422  0.1322
  114EH     H0K 3517   0.286   4.223   2.346 -1.5834  1.5378  0.4033
  114EH     H0M 3518   0.146   4.228   2.243 -0.4419 -0.3846 -1.7391
  114EH     H0N 3519   0.291   4.228   2.161  0.3347  1.8010  0.9050
  114EH     C0O 3520   0.469   3.995   2.150  0.5696  0.0180  0.5625
  114EH     H0P 3521   0.460   4.101   2.126 -0.4254  0.2133  1.7274
  114EH     H0Q 3522   0.570   3.960   2.171  0.7268 -1.1108 -1.9673
  114EH     C0R 3523   0.422   3.906   2.037  0.1173 -0.0985  0.2860
  114EH     H0S 3524   0.314   3.910   2.018  0.0866 -1.2835  0.2158
  114EH     H0T 3525   0.432   3.801   2.060  0.1618 -0.2727 -0.5074
  114EH     C0U 3526   0.499   3.932   1.909 -0.2957  1.4032  0.0260
  114EH     H0V 3527   0.605   3.917   1.930 -0.4465 -0.7570 -0.5978
  114EH     H0W 3528   0.464   3.850   1.846  2.3749 -0.2796  0.6402
  114EH     C0X 3529   0.471   4.067   1.838  0.1622 -0.2965 -0.4765
  114EH     H0Y 3530   0.495   4.151   1.903  1.1887 -1.3698  0.5661
  114EH     H0Z 3531   0.365   4.079   1.816 -0.0589  0.1208  0.8190
  114EH     H10 3532   0.531   4.068   1.747  4.1694  1.9491  2.0550
  115EH     H00 3533   0.240   4.198   2.556 -0.6350 -1.0461  0.0345
  115EH     C01 3534   0.237   4.220   2.663  0.4706 -0.9283  0.0389
  115EH     H02 3535   0.339   4.197   2.695  0.3666 -1.4284  0.0074
  115EH     H03 3536   0.224   4.326   2.684  0.3017 -0.8858 -0.2785
  115EH     C04 3537   0.128   4.133   2.729 -0.3953 -0.2838  0.3523
  115EH     C05 3538   0.006   4.127   2.659 -0.2665  0.4062 -0.7057
  115EH     H06 3539  -0.055   4.047   2.697  0.3787  1.4103  2.5894
  115EH     H07 3540   0.025   4.141   2.554 -2.2297  2.6300 -0.8141
  115EH     C08 3541   0.129   4.145   2.872 -0.0443 -0.1072  0.0466
  115EH     O09 3542   0.058   4.087   2.953  0.2789 -0.2825  0.2252
  115EH     O0A 3543   0.208   4.250   2.907 -0.0963  0.0521 -0.1823
  115EH     C0B 3544   0.210   4.287   3.045 -0.2500 -1.0733  0.5150
  115EH     H0C 3545   0.244   4.200   3.101 -0.8026  0.4864  3.3408
  115EH     H0D 3546   0.108   4.305   3.079  0.3086 -1.0177  2.1985
  115EH     C0E 3547   0.316   4.391   3.065  0.1567  0.2119 -0.3250
  115EH     H0F 3548   0.407   4.341   3.031  0.2993  0.9229 -1.0018
  115EH     C0G 3549   0.292   4.511   2.974 -0.9146  0.7103  0.3169
  115EH     H0H 3550   0.272   4.468   2.876  2.1819 -0.5439  0.1926
  115EH     H0I 3551   0.385   4.569   2.973 -0.4237 -0.0701 -1.1592
  115EH     C0J 3552   0.174   4.605   3.014  0.2486 -0.0930 -0.7478
  115EH     H0K 3553   0.160   4.668   2.926  0.0925  2.0373  0.7464
  115EH     H0M 3554   0.187   4.662   3.106 -2.2683  0.0683 -0.4565
  115EH     H0N 3555   0.080   4.552   3.029 -0.5845  1.5451 -0.0940
  115EH     C0O 3556   0.336   4.428   3.211 -0.6227 -0.2281 -0.6011
  115EH     H0P 3557   0.244   4.471   3.252 -0.6572 -1.2866  0.4588
  115EH     H0Q 3558   0.351   4.337   3.269 -1.9366 -0.1035 -0.0398
  115EH     C0R 3559   0.462   4.513   3.246 -0.3998 -0.1859  0.1256
  115EH     H0S 3560   0.472   4.606   3.190  2.7023  0.0437  1.0038
  115EH     H0T 3561   0.552   4.454   3.230 -1.1667 -1.2130 -0.5086
  115EH     C0U 3562   0.457   4.562   3.391 -0.3504 -0.4512  0.0942
  115EH     H0V 3563   0.368   4.622   3.408 -0.5489 -0.7373  0.0699
  115EH     H0W 3564   0.450   4.480   3.463  1.4392  1.2492  2.2902
  115EH     C0X 3565   0.571   4.656   3.441  0.2567 -0.3713 -0.7925
  115EH     H0Y 3566   0.554   4.695   3.542  0.9979  0.4298 -0.9674
  115EH     H0Z 3567   0.586   4.741   3.374 -0.7993  0.5532  0.1100
  115EH     H10 3568   0.663   4.601   3.455 -0.0900 -0.6479  0.4925
  116EH     H00 3569  -0.167   4.195   2.463 -1.4360  1.2197 -0.6964
  116EH     C01 3570  -0.201   4.195   2.566  0.1879  0.2449 -0.1308
  116EH     H02 3571  -0.291   4.258   2.565  1.6348  2.3899  0.7091
  116EH     H03 3572  -0.241   4.096   2.587 -3.2971  1.5511 -0.2418
  116EH     C04 3573  -0.098   4.259   2.658 -0.5608  0.3168  0.4540
  116EH     C05 3574  -0.023   4.368   2.608  0.0759  0.0390 -0.7639
  116EH     H06 3575   0.025   4.414   2.693 -0.4659 -0.4541 -0.1837
  116EH     H07 3576   0.033   4.351   2.517 -3.1063  1.5057 -3.0578
  116EH     C08 3577  -0.149   4.256   2.797  0.0716  0.4376  0.6416
  116EH     O09 3578  -0.126   4.340   2.883  0.6265 -0.2135 -0.2369
  116EH     O0A 3579  -0.232   4.158   2.820 -0.5300  0.0330 -0.2594
  116EH     C0B 3580  -0.275   4.128   2.952 -0.4979  0.3799  0.2681
  116EH     H0C 3581  -0.330   4.216   2.985  1.0908  1.2163  0.7296
  116EH     H0D 3582  -0.185   4.099   3.004 -1.1860  0.7838  1.6989
  116EH     C0E 3583  -0.375   4.007   2.937  0.5095  0.3561 -0.0981
  116EH     H0F 3584  -0.335   3.941   2.861  1.7782  0.5814  0.3642
  116EH     C0G 3585  -0.382   3.924   3.071  0.7299  0.9980  0.3297
  116EH     H0H 3586  -0.479   3.876   3.080  0.7050  0.8653 -0.6355
  116EH     H0I 3587  -0.373   3.998   3.151  2.0828 -0.8909  1.9749
  116EH     C0J 3588  -0.267   3.825   3.098  0.2659 -0.4386 -0.0378
  116EH     H0K 3589  -0.249   3.812   3.205 -2.3132  1.5731  0.7092
  116EH     H0M 3590  -0.169   3.845   3.053  0.5794  0.5336  1.0245
  116EH     H0N 3591  -0.300   3.731   3.055 -1.7965 -0.3360  1.2931
  116EH     C0O 3592  -0.516   4.043   2.876  0.1702  0.0763 -1.0189
  116EH     H0P 3593  -0.513   4.069   2.770 -1.6335 -1.1098 -1.3879
  116EH     H0Q 3594  -0.585   3.959   2.878 -0.5445  0.6627 -0.6971
  116EH     C0R 3595  -0.596   4.157   2.941 -0.2802  0.7378  0.0488
  116EH     H0S 3596  -0.531   4.244   2.933  1.4389 -0.6271 -1.0116
  116EH     H0T 3597  -0.616   4.148   3.048 -0.2313  0.9240  0.0738
  116EH     C0U 3598  -0.731   4.179   2.873 -0.2426 -0.1326 -0.3532
  116EH     H0V 3599  -0.721   4.230   2.778 -0.7892 -2.0653 -1.4666
  116EH     H0W 3600  -0.783   4.083   2.865 -0.0418 -0.2309 -0.4803
  116EH     C0X 3601  -0.814   4.269   2.956  0.0261 -0.3180  0.1863
  116EH     H0Y 3602  -0.909   4.299   2.911 -0.5933 -1.4799  0.6907
  116EH     H0Z 3603  -0.771   4.369   2.961  0.4302 -0.5040  0.4020
  116EH     H10 3604  -0.837   4.232   3.056 -0.7253  2.3025  1.0212
  117LA     H00 3605   0.117   4.554   2.504  0.4165  1.5136  0.7706
  117LA     C01 3606   0.034   4.598   2.558 -0.8684  0.1457 -0.0274
  117LA     H02 3607   0.070   4.628   2.657 -3.1144 -0.1472  0.9080
  117LA     H03 3608   0.019   4.695   2.509 -0.9431  0.0441 -0.2039
  117LA     C04 3609  -0.091   4.506   2.555  0.3989  0.5625  0.5298
  117LA     C05 3610  -0.191   4.525   2.648 -0.1102  0.2150 -0.2840
  117LA     H06 3611  -0.140   4.530   2.743  0.6590 -1.4846 -0.6018
  117LA     H07 3612  -0.274   4.456   2.638 -2.0085  2.0624  2.0114
  117LA     C08 3613  -0.127   4.471   2.411 -0.2487  0.3704 -0.2301
  117LA     O09 3614  -0.047   4.462   2.319 -1.0175  0.2625 -0.1445
  117LA     O0A 3615  -0.257   4.443   2.390 -0.5345 -0.2782 -0.2303
  117LA     C0B 3616  -0.312   4.400   2.267  0.1451 -0.2170 -0.6134
  117LA     H0C 3617  -0.238   4.336   2.220  2.5802  3.0028 -1.3550
  117LA     H0D 3618  -0.328   4.482   2.196 -0.1167  0.3116  0.0487
  117LA     C0E 3619  -0.442   4.322   2.286 -0.2683  0.0983 -0.9280
  117LA     H0F 3620  -0.474   4.280   2.191 -0.5030 -0.9206 -0.4020
  117LA     H0G 3621  -0.417   4.237   2.349  1.4774  1.1707 -0.1347
  117LA     C0H 3622  -0.548   4.411   2.357  0.4048  0.5200  0.2935
  117LA     H0I 3623  -0.515   4.436   2.458 -1.1247 -0.7250  1.1254
  117LA     H0J 3624  -0.571   4.501   2.299 -2.0150 -0.8986 -1.0562
  117LA     C0K 3625  -0.682   4.332   2.384  0.1655  0.5076  0.5394
  117LA     H0M 3626  -0.703   4.284   2.288  3.1421 -0.6438  0.3981
  117LA     H0N 3627  -0.660   4.252   2.455 -1.0608 -1.0690 -0.8150
  117LA     C0O 3628  -0.810   4.406   2.415  0.6454  0.0848 -0.7253
  117LA     H0P 3629  -0.837   4.459   2.324 -1.6999  0.9256  0.4172
  117LA     H0Q 3630  -0.888   4.332   2.434 -0.4121  1.6887  1.2714
  117LA     C0R 3631  -0.798   4.509   2.533  0.5390 -0.0209  0.2986
  117LA     H0S 3632  -0.743   4.461   2.614 -0.4866 -0.7204  0.5867
  117LA     H0T 3633  -0.732   4.588   2.499 -0.1209 -0.3555 -1.8689
  117LA     C0U 3634  -0.932   4.569   2.574  0.1220  0.0697  0.5408
  117LA     H0V 3635  -0.991   4.489   2.619  2.8273 -2.2442  0.1633
  117LA     H0W 3636  -0.990   4.604   2.489  1.3628  2.3223  0.5803
  117LA     C0X 3637  -0.916   4.679   2.683  0.0244  0.2151 -0.8196
  117LA     H0Y 3638  -0.846   4.759   2.659 -1.4185  2.0053  0.7768
  117LA     H0Z 3639  -1.006   4.738   2.698  1.5644  2.2421  0.7127
  117LA     C10 3640  -0.862   4.614   2.817  0.0248 -0.2102 -0.2435
  117LA     H11 3641  -0.773   4.552   2.803  0.6288  0.9953 -2.0071
  117LA     H12 3642  -0.943   4.553   2.857 -0.3353  1.2531  1.3119
  117LA     C13 3643  -0.817   4.708   2.929  0.1396  0.2253  0.0270
  117LA     H14 3644  -0.905   4.750   2.977  2.3836  0.5912  4.0283
  117LA     H15 3645  -0.759   4.791   2.890  0.0801  0.7184  0.9748
  117LA     C16 3646  -0.743   4.637   3.043 -0.1249  0.0264  0.1506
  117LA     H17 3647  -0.654   4.580   3.017 -0.2018 -0.2619  0.5142
  117LA     H18 3648  -0.814   4.577   3.100 -1.0056  2.4202  1.6535
  117LA     C19 3649  -0.703   4.754   3.147 -0.1296 -0.1193  0.0247
  117LA     H1A 3650  -0.780   4.827   3.170  1.2393  0.5983  2.4247
  117LA     H1B 3651  -0.619   4.807   3.103 -0.4582 -1.9010 -2.8717
  117LA     H1C 3652  -0.673   4.719   3.246  0.0167 -2.7477 -0.8992
  118ST     H00 3653  -0.120   4.815   2.625 -0.6048 -2.6668 -2.7014
  118ST     C01 3654  -0.171   4.767   2.709  0.4876  0.4553 -0.1835
  118ST     H02 3655  -0.091   4.722   2.768  0.1075 -1.0442 -0.8012
  118ST     H03 3656  -0.216   4.850   2.764  0.2363 -0.0573  0.3939
  118ST     C04 3657  -0.276   4.663   2.666 -0.4053 -0.6092  0.0499
  118ST     C05 3658  -0.332   4.689   2.541  0.6160 -0.1591 -0.2802
  118ST     H06 3659  -0.409   4.616   2.521 -1.6929  2.2460 -0.4627
  118ST     H07 3660  -0.242   4.699   2.482  0.9642  1.4954  0.4892
  118ST     C08 3661  -0.365   4.619   2.771 -0.4174  0.1465  0.2821
  118ST     O09 3662  -0.472   4.562   2.760 -0.2019 -0.6220  0.1519
  118ST     O0A 3663  -0.297   4.621   2.886 -0.1471 -0.4077 -0.3471
  118ST     C0B 3664  -0.358   4.565   3.004  0.2211 -0.3215 -0.9204
  118ST     H0C 3665  -0.442   4.628   3.034  0.0007 -0.6551 -0.8335
  118ST     H0D 3666  -0.389   4.462   2.985  0.7311 -1.1324  2.3223
  118ST     C0E 3667  -0.246   4.578   3.110  0.7253  0.0001  0.2084
  118ST     H0F 3668  -0.236   4.685   3.127  0.8038  0.3216 -1.8336
  118ST     H0G 3669  -0.150   4.551   3.066  3.3350  2.8268  3.7684
  118ST     C0H 3670  -0.261   4.487   3.238  0.5112 -1.0041  0.4069
  118ST     H0I 3671  -0.188   4.409   3.218  0.5748 -0.5871 -1.0327
  118ST     H0J 3672  -0.357   4.434   3.240  1.2675 -2.6425 -2.9406
  118ST     C0K 3673  -0.237   4.566   3.362 -0.0820  0.6174  0.5501
  118ST     H0M 3674  -0.317   4.639   3.370  0.8816  1.5356  2.0812
  118ST     H0N 3675  -0.253   4.491   3.439 -0.1426 -0.4734 -0.5049
  118ST     C0O 3676  -0.101   4.639   3.362  0.5162 -0.5809 -0.0360
  118ST     H0P 3677  -0.126   4.727   3.303  0.1371 -1.6223 -1.4450
  118ST     H0Q 3678  -0.021   4.586   3.311 -1.5505 -4.3744  0.4543
  118ST     C0R 3679  -0.053   4.683   3.509  0.0667 -0.1318 -0.6889
  118ST     H0S 3680  -0.047   4.611   3.590 -1.6782  1.3642  0.8031
  118ST     H0T 3681  -0.120   4.765   3.534  0.6699 -0.1225  0.9502
  118ST     C0U 3682   0.094   4.738   3.508  0.3505  0.2645  0.1467
  118ST     H0V 3683   0.105   4.803   3.421  2.0488 -0.2752 -0.0476
  118ST     H0W 3684   0.159   4.659   3.472 -1.1261  0.0397 -2.0713
  118ST     C0X 3685   0.139   4.819   3.633  0.4939 -0.9535  0.8475
  118ST     H0Y 3686   0.080   4.909   3.649  0.7736 -0.4539 -0.8816
  118ST     H0Z 3687   0.105   4.758   3.717 -0.5730 -0.9823  0.4077
  118ST     C10 3688   0.287   4.847   3.635  0.2413  0.3601  0.0155
  118ST     H11 3689   0.346   4.756   3.645 -2.0469 -1.2765 -0.8686
  118ST     H12 3690   0.310   4.905   3.545  0.4639  3.3900  1.9471
  118ST     C13 3691   0.328   4.913   3.762  0.9818 -0.1917 -0.4266
  118ST     H14 3692   0.285   4.861   3.848  1.3229  0.0323 -0.1211
  118ST     H15 3693   0.436   4.919   3.766  1.0645 -2.3758  1.5582
  118ST     C16 3694   0.276   5.055   3.778  0.4342 -0.7700 -0.0160
  118ST     H17 3695   0.167   5.050   3.769 -0.0781  2.1666  3.3796
  118ST     H18 3696   0.295   5.091   3.879 -1.3489  1.1354 -0.3127
  118ST     C19 3697   0.323   5.164   3.679 -0.9012 -0.3345  0.2437
  118ST     H1A 3698   0.429   5.185   3.695 -0.4799 -0.0625 -2.6699
  118ST     H1B 3699   0.313   5.136   3.574  1.3796 -1.5272  0.3040
  118ST     C1C 3700   0.260   5.304   3.698 -0.1142  0.8961  0.7086
  118ST     H1D 3701   0.266   5.337   3.802 -1.5776  0.0163  1.0781
  118ST     H1E 3702   0.321   5.370   3.637  1.0421 -1.2628 -0.5419
  118ST     C1F 3703   0.108   5.318   3.653 -0.0269 -0.0730  0.5589
  118ST     H1G 3704   0.049   5.237   3.694  0.4939 -1.0894 -0.6698
  118ST     H1H 3705   0.060   5.402   3.703 -0.0925  0.4912 -0.4301
  118ST     C1I 3706   0.094   5.333   3.502  0.3065  0.5877 -0.1549
  118ST     H1J 3707   0.179   5.276   3.466 -0.0877 -0.9169  1.2400
  118ST     H1K 3708   0.095   5.435   3.462 -1.6516 -0.1321 -2.0962
  118ST     C1M 3709  -0.031   5.262   3.448  0.0251  0.4096 -0.1425
  118ST     H1N 3710  -0.044   5.168   3.502  0.9309 -0.0607 -0.7479
  118ST     H1O 3711  -0.009   5.226   3.348 -1.9051  1.9804 -1.1571
  118ST     C1P 3712  -0.155   5.352   3.436 -0.4929 -1.0825  0.2348
  118ST     H1Q 3713  -0.241   5.285   3.435  0.0401 -1.7672 -1.1453
  118ST     H1R 3714  -0.148   5.414   3.525 -0.4371 -0.8768  0.0871
  118ST     C1S 3715  -0.158   5.430   3.306  0.8940 -0.3773  0.1583
  118ST     H1T 3716  -0.065   5.483   3.290  0.2547 -0.1566 -3.0702
  118ST     H1U 3717  -0.224   5.516   3.305  2.0362  0.5140  0.6066
  118ST     H1V 3718  -0.177   5.361   3.223 -1.4253  1.1614 -0.6499
  119EH     H00 3719  -0.465   4.870   2.692  2.4776 -0.5898 -0.8924
  119EH     C01 3720  -0.506   4.853   2.593 -0.3069 -0.7326  0.2441
  119EH     H02 3721  -0.569   4.765   2.607 -1.3601 -0.0028  0.1218
  119EH     H03 3722  -0.571   4.933   2.558  1.1227  0.6892  0.8103
  119EH     C04 3723  -0.405   4.823   2.484  0.4659  0.4043 -0.5741
  119EH     C05 3724  -0.448   4.777   2.357 -0.0313  0.6342  0.1906
  119EH     H06 3725  -0.354   4.758   2.307  0.4716  3.2049  0.0708
  119EH     H07 3726  -0.522   4.700   2.371  3.4169 -2.9147 -0.3392
  119EH     C08 3727  -0.303   4.928   2.484 -0.5554 -0.0459 -0.1485
  119EH     O09 3728  -0.197   4.933   2.421  0.2258 -0.1473  0.3894
  119EH     O0A 3729  -0.322   5.028   2.571 -0.2619  0.2962 -0.2225
  119EH     C0B 3730  -0.239   5.142   2.568  0.1063  0.5374 -0.2079
  119EH     H0C 3731  -0.256   5.216   2.489  1.5599  0.2886 -0.7811
  119EH     H0D 3732  -0.134   5.112   2.561 -0.7128 -1.8660 -3.1358
  119EH     C0E 3733  -0.260   5.218   2.700  0.3170  0.0273  0.1315
  119EH     H0F 3734  -0.349   5.274   2.669 -0.8248 -0.7128  1.9774
  119EH     C0G 3735  -0.275   5.143   2.828 -0.0152 -0.0087 -1.3820
  119EH     H0H 3736  -0.178   5.119   2.872 -0.6298 -0.7609 -0.4303
  119EH     H0I 3737  -0.325   5.048   2.813 -0.7725 -0.0449  1.1568
  119EH     C0J 3738  -0.348   5.226   2.941  0.6630  0.8568  0.1517
  119EH     H0K 3739  -0.451   5.253   2.916  0.9165  0.8009 -0.9828
  119EH     H0M 3740  -0.297   5.320   2.958 -1.6849  2.0479  0.8903
  119EH     H0N 3741  -0.359   5.170   3.034 -0.3264  1.5968  0.4934
  119EH     C0O 3742  -0.153   5.319   2.717 -0.1018  0.4323 -0.3007
  119EH     H0P 3743  -0.080   5.292   2.793 -0.6106 -1.1929 -0.3753
  119EH     H0Q 3744  -0.093   5.326   2.627  0.7489 -0.8727  0.1668
  119EH     C0R 3745  -0.192   5.468   2.723  0.5854  0.2693 -0.6045
  119EH     H0S 3746  -0.269   5.473   2.799  1.6605 -1.3333  0.6256
  119EH     H0T 3747  -0.245   5.499   2.633  0.4290  1.1061 -0.2313
  119EH     C0U 3748  -0.084   5.565   2.763 -0.7759  0.5480  0.3484
  119EH     H0V 3749  -0.130   5.652   2.808  0.6567  1.0152  0.9160
  119EH     H0W 3750  -0.027   5.518   2.843 -1.6398 -0.5610  0.3289
  119EH     C0X 3751   0.009   5.610   2.643  0.0005  0.0705  0.8256
  119EH     H0Y 3752   0.097   5.664   2.677 -1.5381  1.9631  1.9716
  119EH     H0Z 3753  -0.051   5.678   2.583 -0.4495 -0.1165  1.0603
  119EH     H10 3754   0.040   5.536   2.570  0.0240  0.0975  0.8088
  120EH     H00 3755  -0.562   4.804   2.051  0.5719  2.3951  0.5387
  120EH     C01 3756  -0.489   4.774   2.125  0.0853  0.7457  0.3684
  120EH     H02 3757  -0.498   4.667   2.141 -2.2606  0.7546 -0.6663
  120EH     H03 3758  -0.396   4.796   2.073 -1.2536  1.1041 -1.9597
  120EH     C04 3759  -0.522   4.862   2.243 -0.2585 -0.2663 -0.0398
  120EH     C05 3760  -0.460   4.986   2.255  0.1732  0.4018  0.9482
  120EH     H06 3761  -0.498   5.042   2.339  0.8927  0.4193  1.2623
  120EH     H07 3762  -0.354   4.985   2.233  0.3873  1.3222  1.9205
  120EH     C08 3763  -0.664   4.848   2.274  0.1357 -0.1544  0.1436
  120EH     O09 3764  -0.730   4.749   2.246  0.8287  0.4290  0.2484
  120EH     O0A 3765  -0.703   4.940   2.357  0.2337  0.1603 -0.1272
  120EH     C0B 3766  -0.843   4.947   2.382  0.0868 -0.8024  0.5294
  120EH     H0C 3767  -0.877   4.852   2.424  1.3765 -1.4500  0.1456
  120EH     H0D 3768  -0.881   4.964   2.282  0.2609  0.2945  0.6500
  120EH     C0E 3769  -0.915   5.066   2.454  0.1410  0.2570 -0.2327
  120EH     H0F 3770  -0.936   5.153   2.391 -1.4557  0.1921  0.1883
  120EH     C0G 3771  -1.048   5.019   2.506 -0.2129  0.3059  0.2868
  120EH     H0H 3772  -1.079   5.081   2.591 -0.3834  1.0902 -0.3375
  120EH     H0I 3773  -1.037   4.917   2.542  2.8645  1.4289  2.8172
  120EH     C0J 3774  -1.158   5.038   2.399  0.7737 -0.6789  0.5644
  120EH     H0K 3775  -1.189   5.141   2.381 -1.0569 -0.8648  2.4360
  120EH     H0M 3776  -1.256   4.997   2.425 -0.8119  3.2492  1.0919
  120EH     H0N 3777  -1.129   4.992   2.304 -1.4189  0.3046 -0.6267
  120EH     C0O 3778  -0.829   5.128   2.557 -0.2105 -0.1564 -0.1483
  120EH     H0P 3779  -0.739   5.165   2.510 -1.4078  0.8872 -1.6685
  120EH     H0Q 3780  -0.882   5.218   2.588  1.4447  0.8691 -0.2572
  120EH     C0R 3781  -0.812   5.036   2.681  0.0167  0.1069 -0.9170
  120EH     H0S 3782  -0.760   4.950   2.638 -0.0005 -1.0022  1.1736
  120EH     H0T 3783  -0.903   5.013   2.737  0.2319 -0.6028 -0.8558
  120EH     C0U 3784  -0.734   5.102   2.791 -0.1353  0.2926  0.2459
  120EH     H0V 3785  -0.679   5.027   2.848 -2.1431 -1.0141  0.5310
  120EH     H0W 3786  -0.655   5.165   2.751 -1.4853  3.7551  2.7340
  120EH     C0X 3787  -0.816   5.172   2.905 -0.3030  0.2034 -0.0595
  120EH     H0Y 3788  -0.888   5.106   2.954  0.5967 -1.6486 -1.1372
  120EH     H0Z 3789  -0.873   5.256   2.866  0.9149  0.1686 -1.9746
  120EH     H10 3790  -0.753   5.215   2.982  0.8687  0.5907 -1.2235
  121LA     H00 3791  -0.326   4.991   2.026  0.6523  0.9077  0.9487
  121LA     C01 3792  -0.417   5.049   2.011 -0.0979 -0.4876  0.0626
  121LA     H02 3793  -0.409   5.118   1.927 -0.6816 -0.5473 -0.0405
  121LA     H03 3794  -0.480   4.970   1.970 -0.6956  0.1923 -0.3410
  121LA     C04 3795  -0.482   5.102   2.139 -0.0658 -0.3183 -0.6118
  121LA     C05 3796  -0.409   5.205   2.204 -0.0109  0.8033  0.1343
  121LA     H06 3797  -0.454   5.232   2.299 -1.6823 -0.8169 -0.1759
  121LA     H07 3798  -0.303   5.186   2.194  0.0031  1.1665 -0.4238
  121LA     C08 3799  -0.631   5.118   2.130  0.2396 -0.4578  0.2645
  121LA     O09 3800  -0.706   5.162   2.216 -0.2767 -0.1181 -0.1719
  121LA     O0A 3801  -0.677   5.075   2.007 -0.7706 -0.5489 -0.3054
  121LA     C0B 3802  -0.817   5.067   1.975 -0.1254  0.2153 -0.3335
  121LA     H0C 3803  -0.870   5.016   2.056 -0.9807 -0.2666 -1.1900
  121LA     H0D 3804  -0.833   4.996   1.894 -0.0018  0.3593 -0.4852
  121LA     C0E 3805  -0.864   5.210   1.942  0.1047 -0.4652 -0.2182
  121LA     H0F 3806  -0.971   5.202   1.921  0.6472  0.2140 -3.5622
  121LA     H0G 3807  -0.859   5.284   2.021 -2.2350 -0.3111 -0.1841
  121LA     C0H 3808  -0.789   5.275   1.825 -0.1435  0.3319  0.3352
  121LA     H0I 3809  -0.816   5.379   1.812 -1.2777  0.1303  1.0340
  121LA     H0J 3810  -0.683   5.280   1.850 -0.4164  1.8981  1.2543
  121LA     C0K 3811  -0.825   5.200   1.688 -0.2365  0.1516  0.0032
  121LA     H0M 3812  -0.926   5.160   1.690 -1.1997  2.5362  0.7787
  121LA     H0N 3813  -0.825   5.277   1.611 -1.8518  1.8790  1.6705
  121LA     C0O 3814  -0.716   5.088   1.657 -0.0900  0.4262 -0.1375
  121LA     H0P 3815  -0.717   5.012   1.735 -2.5638  0.8570  0.3040
  121LA     H0Q 3816  -0.757   5.033   1.572 -0.4344  1.1144 -0.4251
  121LA     C0R 3817  -0.578   5.149   1.617  0.7099  0.1886 -0.4220
  121LA     H0S 3818  -0.585   5.235   1.551  0.0197 -0.3991 -1.1171
  121LA     H0T 3819  -0.537   5.202   1.703  0.4178  0.8405 -0.6803
  121LA     C0U 3820  -0.476   5.051   1.568  0.4576 -0.0036 -0.2429
  121LA     H0V 3821  -0.490   5.031   1.461  2.3434  2.1785 -0.9548
  121LA     H0W 3822  -0.379   5.102   1.559 -1.7702  4.6778  0.6301
  121LA     C0X 3823  -0.464   4.917   1.649 -0.3328 -0.2402 -0.6537
  121LA     H0Y 3824  -0.451   4.941   1.755 -1.2981 -0.2885 -0.5212
  121LA     H0Z 3825  -0.557   4.862   1.639  0.3054 -1.3156 -0.7720
  121LA     C10 3826  -0.349   4.828   1.599 -0.0872  0.5565 -0.2019
  121LA     H11 3827  -0.258   4.887   1.604  0.6511 -0.6264  0.2468
  121LA     H12 3828  -0.367   4.791   1.498  0.7704  2.4792 -1.0918
  121LA     C13 3829  -0.332   4.704   1.695 -0.4763 -0.4284 -0.2820
  121LA     H14 3830  -0.389   4.620   1.654  2.1416 -2.4969  0.2093
  121LA     H15 3831  -0.369   4.722   1.795  1.0021  1.5144 -0.0496
  121LA     C16 3832  -0.188   4.659   1.721  0.7087 -0.0179  0.3418
  121LA     H17 3833  -0.193   4.556   1.756 -1.0351 -0.0021  0.1852
  121LA     H18 3834  -0.149   4.726   1.797 -1.0669 -0.7300  1.9137
  121LA     C19 3835  -0.106   4.648   1.594 -0.0595 -0.2347 -0.0800
  121LA     H1A 3836  -0.078   4.745   1.554 -2.2237  0.9360  1.1488
  121LA     H1B 3837  -0.156   4.588   1.517 -0.4107  0.6035 -0.5076
  121LA     H1C 3838  -0.011   4.599   1.615  0.5309  0.6531 -0.6474
  122EH     H00 3839  -0.626   5.402   2.124  1.5572 -0.9289 -2.0484
  122EH     C01 3840  -0.548   5.414   2.200 -0.2646  0.5511 -0.3678
  122EH     H02 3841  -0.541   5.521   2.217  1.1121  0.2763  0.8907
  122EH     H03 3842  -0.591   5.371   2.290  0.6750 -0.5239 -0.4196
  122EH     C04 3843  -0.415   5.362   2.157  0.0453 -0.2356 -0.1137
  122EH     C05 3844  -0.388   5.353   2.021  0.3503 -0.2421  0.0866
  122EH     H06 3845  -0.289   5.314   2.006  0.3267 -1.0904  1.9518
  122EH     H07 3846  -0.474   5.309   1.971  1.1847 -1.9706  0.1243
  122EH     C08 3847  -0.310   5.411   2.251  0.7471  0.0521 -0.6965
  122EH     O09 3848  -0.335   5.475   2.356 -0.1222  0.3895  0.0357
  122EH     O0A 3849  -0.189   5.354   2.227 -0.0076 -0.0430 -0.5770
  122EH     C0B 3850  -0.080   5.382   2.309  0.0584  0.1410  0.1108
  122EH     H0C 3851  -0.108   5.371   2.414  1.0338 -1.5083  0.2211
  122EH     H0D 3852  -0.054   5.487   2.298  2.8790 -0.5486 -0.1214
  122EH     C0E 3853   0.043   5.295   2.259 -0.8065 -0.2076  0.4677
  122EH     H0F 3854   0.047   5.301   2.150  1.5820 -0.3635  0.5180
  122EH     C0G 3855   0.174   5.353   2.312  0.5388 -0.1634 -0.7294
  122EH     H0H 3856   0.255   5.280   2.323 -0.3039 -0.9921  0.1190
  122EH     H0I 3857   0.159   5.371   2.418 -0.2060 -1.8374 -0.5299
  122EH     C0J 3858   0.224   5.480   2.245  0.2251  0.4988 -0.0520
  122EH     H0K 3859   0.222   5.467   2.137 -0.1289 -3.2634  0.3330
  122EH     H0M 3860   0.323   5.518   2.270  0.1240  0.0425  1.0724
  122EH     H0N 3861   0.162   5.565   2.274 -0.8444 -1.6494  4.4133
  122EH     C0O 3862   0.025   5.147   2.291  0.1619  0.1004  0.2318
  122EH     H0P 3863   0.048   5.135   2.397 -0.3005  0.1481  0.3368
  122EH     H0Q 3864  -0.079   5.118   2.277  0.1430  0.8349 -1.2732
  122EH     C0R 3865   0.101   5.045   2.198 -0.3046  0.6507 -0.2300
  122EH     H0S 3866   0.204   5.042   2.235 -0.9007 -1.7491  1.3933
  122EH     H0T 3867   0.096   5.080   2.095 -1.0114  0.1024 -0.3912
  122EH     C0U 3868   0.050   4.897   2.206 -0.4378 -0.0765  0.2449
  122EH     H0V 3869   0.056   4.865   2.310 -0.9087  0.6860  0.5142
  122EH     H0W 3870  -0.054   4.887   2.173  0.4221 -3.1217 -1.7432
  122EH     C0X 3871   0.137   4.800   2.127 -0.0270  0.1526  0.9337
  122EH     H0Y 3872   0.103   4.696   2.130 -0.7470  0.3710  0.4991
  122EH     H0Z 3873   0.243   4.793   2.149 -0.5426 -1.3252  3.2026
  122EH     H10 3874   0.132   4.834   2.024  0.1602 -2.0310  0.1864
  123LA     H00 3875  -0.494   5.605   2.048 -0.4311  1.5181 -0.4065
  123LA     C01 3876  -0.499   5.561   1.948  0.8583 -0.1657  0.2646
  123LA     H02 3877  -0.589   5.501   1.934  0.5994  0.6597 -1.7462
  123LA     H03 3878  -0.510   5.649   1.884  0.6421  1.5475  2.5886
  123LA     C04 3879  -0.366   5.485   1.922 -0.1717 -0.2832 -0.5158
  123LA     C05 3880  -0.353   5.427   1.797  0.1378 -0.2242  0.1251
  123LA     H06 3881  -0.451   5.397   1.763  0.2697 -1.9902  1.2480
  123LA     H07 3882  -0.262   5.368   1.789 -0.1239 -1.0285  2.6235
  123LA     C08 3883  -0.238   5.544   1.978  0.4100 -0.0940 -0.1317
  123LA     O09 3884  -0.127   5.491   1.972 -0.1460 -0.4041 -0.1960
  123LA     O0A 3885  -0.258   5.671   2.017  0.3707  0.0556 -0.3861
  123LA     C0B 3886  -0.157   5.752   2.085  0.4271 -0.0820  0.0576
  123LA     H0C 3887  -0.110   5.707   2.172  1.2693 -2.8993 -1.7779
  123LA     H0D 3888  -0.067   5.766   2.024 -0.7766  1.0549 -1.5010
  123LA     C0E 3889  -0.224   5.879   2.127 -0.3543  0.2841  0.6160
  123LA     H0F 3890  -0.145   5.952   2.146 -0.4520  0.1445  1.5524
  123LA     H0G 3891  -0.285   5.917   2.044  3.5248  0.0846 -2.5049
  123LA     C0H 3892  -0.304   5.858   2.257  0.1493 -0.1021  0.2013
  123LA     H0I 3893  -0.384   5.932   2.255  1.2622  1.1130 -1.7031
  123LA     H0J 3894  -0.352   5.762   2.244  0.4857 -0.1680 -0.6032
  123LA     C0K 3895  -0.226   5.873   2.389  0.2893 -0.9497 -0.5423
  123LA     H0M 3896  -0.158   5.788   2.394  1.1822 -0.2399 -0.4551
  123LA     H0N 3897  -0.167   5.964   2.378  2.0056 -2.1061 -1.1839
  123LA     C0O 3898  -0.315   5.894   2.513 -0.4797 -0.6448 -0.5753
  123LA     H0P 3899  -0.385   5.976   2.498 -0.1865 -0.4121 -0.6734
  123LA     H0Q 3900  -0.367   5.800   2.532  0.7570 -0.9178  1.6098
  123LA     C0R 3901  -0.242   5.931   2.644 -0.2225 -0.1421 -0.6003
  123LA     H0S 3902  -0.185   5.840   2.662  0.6887  0.2889 -1.2293
  123LA     H0T 3903  -0.168   6.009   2.624  2.6063 -2.1605  1.6722
  123LA     C0U 3904  -0.335   5.986   2.756 -0.2034  0.4169 -0.0425
  123LA     H0V 3905  -0.355   6.088   2.726  2.4601  1.7390  2.4920
  123LA     H0W 3906  -0.427   5.927   2.759 -0.1955  0.3913 -0.3079
  123LA     C0X 3907  -0.282   5.977   2.897  0.4495 -0.2062  0.0395
  123LA     H0Y 3908  -0.265   5.870   2.911  1.1450 -0.3578 -1.8456
  123LA     H0Z 3909  -0.183   6.021   2.889  0.2428 -0.0108 -1.4033
  123LA     C10 3910  -0.369   6.024   3.014  0.7417  0.5688 -0.8620
  123LA     H11 3911  -0.461   5.968   3.000  0.5103  0.7786 -0.1837
  123LA     H12 3912  -0.394   6.130   3.000 -2.9622 -0.2182 -0.7239
  123LA     C13 3913  -0.296   5.992   3.147  1.0284  0.3177  0.3547
  123LA     H14 3914  -0.202   6.046   3.154  1.7505 -1.0287  1.1752
  123LA     H15 3915  -0.276   5.885   3.146 -3.9261 -0.7337 -0.6792
  123LA     C16 3916  -0.394   6.041   3.252 -0.0806  0.3201  0.7270
  123LA     H17 3917  -0.363   6.011   3.352  1.4608 -1.6983 -0.3127
  123LA     H18 3918  -0.493   5.996   3.247  0.3287 -0.3519 -2.1459
  123LA     C19 3919  -0.384   6.188   3.276 -0.2561  0.1423  0.3884
  123LA     H1A 3920  -0.285   6.215   3.312  0.3954 -2.0567  0.2780
  123LA     H1B 3921  -0.450   6.217   3.357 -0.1658  1.3920  0.0403
  123LA     H1C 3922  -0.424   6.249   3.194  2.8714  0.8798 -0.6555
  124LA     H00 3923  -0.352   5.719   1.770 -1.7645 -0.3557  1.4633
  124LA     C01 3924  -0.376   5.650   1.689 -0.2109  0.1046  0.5790
  124LA     H02 3925  -0.483   5.634   1.680  0.0429 -1.9432  0.8310
  124LA     H03 3926  -0.343   5.708   1.604  1.1122  0.6094  1.4202
  124LA     C04 3927  -0.306   5.516   1.664  0.3161  0.4509 -0.6883
  124LA     C05 3928  -0.349   5.436   1.558  0.2748  0.3706  0.5482
  124LA     H06 3929  -0.285   5.349   1.559 -0.3251 -0.0670  1.3515
  124LA     H07 3930  -0.456   5.433   1.573  0.5657  1.7750  3.2435
  124LA     C08 3931  -0.154   5.516   1.673 -0.6303  1.1982  0.2261
  124LA     O09 3932  -0.087   5.414   1.640  0.0176  0.0405 -0.2158
  124LA     O0A 3933  -0.103   5.632   1.714  0.2221  0.0090 -0.4676
  124LA     C0B 3934   0.038   5.637   1.727  0.5636 -0.1673 -0.7137
  124LA     H0C 3935   0.109   5.600   1.652  0.8487  0.5851 -0.8196
  124LA     H0D 3936   0.070   5.582   1.815 -0.5566  1.3919  0.6942
  124LA     C0E 3937   0.059   5.792   1.735 -0.2443 -0.0893 -0.4073
  124LA     H0F 3938   0.044   5.823   1.632 -2.0263  1.3835  0.2778
  124LA     H0G 3939  -0.003   5.840   1.811  1.6699 -0.2406  1.3107
  124LA     C0H 3940   0.198   5.824   1.777 -0.5129 -0.4723  0.6013
  124LA     H0I 3941   0.270   5.767   1.717  0.2603 -0.1623  1.2288
  124LA     H0J 3942   0.224   5.927   1.757  1.6508 -1.1316 -0.1484
  124LA     C0K 3943   0.217   5.808   1.932  0.1022  0.2079  0.0134
  124LA     H0M 3944   0.123   5.846   1.972 -0.0737 -0.0616 -0.1413
  124LA     H0N 3945   0.234   5.703   1.955 -0.5625  0.2100  0.5467
  124LA     C0O 3946   0.316   5.901   2.007 -0.7995  0.6734  0.0409
  124LA     H0P 3947   0.419   5.879   1.979 -0.3007  3.2870 -0.3403
  124LA     H0Q 3948   0.309   6.007   1.980 -2.4757  0.6033  0.1680
  124LA     C0R 3949   0.310   5.894   2.165  0.1423  0.3733  0.0059
  124LA     H0S 3950   0.290   5.789   2.187 -1.8797 -0.1829 -4.0488
  124LA     H0T 3951   0.403   5.920   2.216 -0.4151  0.8802  0.7873
  124LA     C0U 3952   0.191   5.967   2.219  0.3047  0.1412  0.7510
  124LA     H0V 3953   0.198   6.060   2.163  0.3646  0.3647  1.1223
  124LA     H0W 3954   0.095   5.922   2.192 -0.8412  1.8204  1.8403
  124LA     C0X 3955   0.177   5.969   2.374  0.0360 -0.0489 -0.1580
  124LA     H0Y 3956   0.089   6.030   2.393 -1.1969 -2.0435  0.6223
  124LA     H0Z 3957   0.158   5.871   2.415 -0.2087  0.2375  0.4101
  124LA     C10 3958   0.300   6.017   2.449 -0.3032 -0.0693  0.4236
  124LA     H11 3959   0.359   6.094   2.398  0.6035 -0.1285  1.3641
  124LA     H12 3960   0.367   5.933   2.468 -0.2414  0.1774  1.2917
  124LA     C13 3961   0.269   6.069   2.593  0.8464  0.1424 -0.9139
  124LA     H14 3962   0.214   5.988   2.640  2.6972 -1.1482 -0.9028
  124LA     H15 3963   0.212   6.162   2.594  0.4473 -0.0960 -1.2387
  124LA     C16 3964   0.389   6.090   2.682 -0.5670 -0.3425  0.3361
  124LA     H17 3965   0.429   5.991   2.703  0.9207 -0.1592 -1.4870
  124LA     H18 3966   0.345   6.116   2.778  1.8398 -0.9588  1.6446
  124LA     C19 3967   0.492   6.196   2.657  0.0186 -0.2015  0.8946
  124LA     H1A 3968   0.454   6.298   2.650  2.1911  0.4388 -2.7681
  124LA     H1B 3969   0.540   6.173   2.561 -0.1666  0.3054  0.6794
  124LA     H1C 3970   0.574   6.200   2.728  1.2665  0.3592 -0.5544
  125EH     H00 3971  -0.143   5.483   1.345 -1.0793 -0.6104 -0.3400
  125EH     C01 3972  -0.228   5.549   1.359 -0.5396 -0.0231  0.2118
  125EH     H02 3973  -0.189   5.617   1.434 -2.2777 -0.8600  1.9161
  125EH     H03 3974  -0.216   5.591   1.259  0.0905  2.6449  1.3581
  125EH     C04 3975  -0.365   5.486   1.400  0.2893  0.6267 -0.6063
  125EH     C05 3976  -0.391   5.359   1.346  0.0627 -0.3785  0.0291
  125EH     H06 3977  -0.311   5.286   1.350 -0.4288 -0.8218  2.6299
  125EH     H07 3978  -0.485   5.327   1.388 -0.7155  2.7817  0.7634
  125EH     C08 3979  -0.470   5.589   1.403  0.2892  0.1702  0.1610
  125EH     O09 3980  -0.588   5.566   1.434  0.3677  0.1981  0.5573
  125EH     O0A 3981  -0.429   5.713   1.376  0.3256 -0.0615 -0.3014
  125EH     C0B 3982  -0.506   5.826   1.408 -0.1317 -0.7137 -0.4779
  125EH     H0C 3983  -0.484   5.853   1.511  1.6161  0.7504 -1.2174
  125EH     H0D 3984  -0.612   5.799   1.402  0.0033 -1.0302 -1.7124
  125EH     C0E 3985  -0.467   5.950   1.326 -0.2797 -0.5015  0.1545
  125EH     H0F 3986  -0.483   5.915   1.224  1.3111 -0.7621 -0.0109
  125EH     C0G 3987  -0.563   6.067   1.364 -0.5207  0.6113 -0.1787
  125EH     H0H 3988  -0.546   6.094   1.468  2.6180  0.3381 -0.5596
  125EH     H0I 3989  -0.663   6.029   1.386 -0.5462  1.3240  0.9797
  125EH     C0J 3990  -0.577   6.178   1.258  0.2666  0.2749  0.6444
  125EH     H0K 3991  -0.652   6.244   1.300 -1.5765 -0.2121 -1.7258
  125EH     H0M 3992  -0.627   6.143   1.167  0.3316 -0.9665  1.0687
  125EH     H0N 3993  -0.486   6.232   1.233  0.1809 -0.6628 -1.8315
  125EH     C0O 3994  -0.318   5.986   1.349 -0.1595 -0.1861 -0.2830
  125EH     H0P 3995  -0.309   6.037   1.445  0.6639  2.4515 -1.7037
  125EH     H0Q 3996  -0.265   5.893   1.370  0.1144  0.3061  1.3021
  125EH     C0R 3997  -0.245   6.063   1.235  0.0803 -0.1002  0.4877
  125EH     H0S 3998  -0.264   6.170   1.238  0.3923 -0.0689  1.8664
  125EH     H0T 3999  -0.281   6.035   1.136  2.7346  0.8494 -0.7977
  125EH     C0U 4000  -0.093   6.034   1.221  0.3405 -0.9300  0.2206
  125EH     H0V 4001  -0.048   6.012   1.317 -1.0468  4.3607  2.2729
  125EH     H0W 4002  -0.074   5.948   1.157  1.1154  0.6184 -1.7180
  125EH     C0X 4003  -0.017   6.154   1.159  0.1356  0.4084  0.3441
  125EH     H0Y 4004  -0.069   6.205   1.077  1.6560 -1.0237 -1.5770
  125EH     H0Z 4005   0.078   6.122   1.115 -1.1635 -1.6954 -0.9805
  125EH     H10 4006   0.001   6.231   1.234 -3.7518  1.6968  0.0470
  126ST     H00 4007  -0.514   5.140   1.116 -0.9046 -0.4600  0.6892
  126ST     C01 4008  -0.485   5.193   1.207  0.5361  0.2274 -0.1531
  126ST     H02 4009  -0.574   5.184   1.269  0.7228  1.0437  0.2337
  126ST     H03 4010  -0.410   5.137   1.262 -0.2320 -0.7280 -0.0534
  126ST     C04 4011  -0.427   5.336   1.183  0.6547  0.2199 -0.0711
  126ST     C05 4012  -0.517   5.443   1.153 -0.3364 -0.1334 -0.4362
  126ST     H06 4013  -0.469   5.538   1.133  0.1961 -0.1246  0.8183
  126ST     H07 4014  -0.602   5.455   1.219 -0.0077  0.2492 -0.0807
  126ST     C08 4015  -0.298   5.333   1.119  0.1085 -0.2270  0.3142
  126ST     O09 4016  -0.220   5.235   1.122  0.3687  0.1593 -0.3848
  126ST     O0A 4017  -0.257   5.451   1.064 -0.2344 -0.1032  0.4481
  126ST     C0B 4018  -0.137   5.465   0.992  0.5506 -0.4476 -0.1445
  126ST     H0C 4019  -0.044   5.427   1.034  1.0893  0.0879 -0.8178
  126ST     H0D 4020  -0.158   5.414   0.898 -0.9500  0.6439 -0.4141
  126ST     C0E 4021  -0.121   5.617   0.983 -0.0923  0.2331 -0.9349
  126ST     H0F 4022  -0.083   5.645   1.082 -1.8154  1.3700 -0.5646
  126ST     H0G 4023  -0.216   5.671   0.983  0.0676  0.5300  0.2634
  126ST     C0H 4024  -0.029   5.678   0.879 -0.0539 -0.4878  0.2003
  126ST     H0I 4025  -0.050   5.635   0.781 -0.8988  1.0094 -0.2914
  126ST     H0J 4026   0.077   5.657   0.895  0.0862 -0.3932 -0.6179
  126ST     C0K 4027  -0.053   5.833   0.874 -0.0803  0.0227  0.2907
  126ST     H0M 4028  -0.158   5.858   0.856 -0.4865 -1.5862  0.3633
  126ST     H0N 4029  -0.024   5.871   0.971 -0.5939 -1.3375  0.9929
  126ST     C0O 4030   0.037   5.896   0.766  0.6420  0.0387  0.2918
  126ST     H0P 4031   0.078   5.838   0.683  1.1686  3.4699 -1.9264
  126ST     H0Q 4032   0.120   5.939   0.823 -0.7857  2.7887  0.3853
  126ST     C0R 4033  -0.053   6.011   0.709 -0.2955  0.5435 -0.2578
  126ST     H0S 4034  -0.057   6.090   0.784 -0.5043  0.7776 -0.5138
  126ST     H0T 4035  -0.153   5.980   0.679 -0.0804  0.6454 -1.1118
  126ST     C0U 4036   0.012   6.085   0.588 -0.0168 -0.8208 -0.3096
  126ST     H0V 4037  -0.048   6.166   0.548  1.1608  0.4136  0.3967
  126ST     H0W 4038   0.024   6.015   0.505  1.2360  0.9032 -1.6045
  126ST     C0X 4039   0.157   6.133   0.600 -0.3266  0.7221  0.3825
  126ST     H0Y 4040   0.221   6.046   0.616  1.3203  1.0877 -3.7231
  126ST     H0Z 4041   0.192   6.187   0.513  1.8500 -1.9111 -0.4538
  126ST     C10 4042   0.174   6.225   0.725 -0.3184 -0.7057  0.2728
  126ST     H11 4043   0.095   6.299   0.730  1.1818  0.7987  2.9952
  126ST     H12 4044   0.146   6.162   0.810 -2.5348 -0.1454 -0.0235
  126ST     C13 4045   0.316   6.274   0.745 -0.1691 -0.7764 -0.6626
  126ST     H14 4046   0.371   6.186   0.778  2.9322  0.7343 -1.6062
  126ST     H15 4047   0.353   6.316   0.652  0.1177 -0.7235 -0.5265
  126ST     C16 4048   0.323   6.378   0.860  0.8139 -0.0578  0.6071
  126ST     H17 4049   0.407   6.444   0.842  0.2487  1.0994  2.1107
  126ST     H18 4050   0.226   6.428   0.863  0.5115 -0.6108  0.1020
  126ST     C19 4051   0.335   6.316   1.000 -0.8376 -0.1972 -0.2908
  126ST     H1A 4052   0.265   6.234   1.015 -0.4922 -0.3459  0.4832
  126ST     H1B 4053   0.430   6.263   1.003  0.1127  1.2972 -2.2306
  126ST     C1C 4054   0.332   6.416   1.107  0.8417 -0.3653 -0.0193
  126ST     H1D 4055   0.407   6.492   1.088 -1.4456  2.0539  0.3752
  126ST     H1E 4056   0.229   6.450   1.119  1.9019  2.4968  1.3466
  126ST     C1F 4057   0.378   6.378   1.249 -0.1351 -0.4049  0.4763
  126ST     H1G 4058   0.481   6.345   1.259 -0.8126 -2.4438  0.8974
  126ST     H1H 4059   0.356   6.473   1.298 -1.7125 -1.4759  1.8985
  126ST     C1I 4060   0.291   6.276   1.318  0.4017 -0.3368 -0.3335
  126ST     H1J 4061   0.260   6.209   1.238  0.7845 -1.7577  0.6729
  126ST     H1K 4062   0.204   6.325   1.362  0.3282 -0.2996 -0.5225
  126ST     C1M 4063   0.368   6.201   1.421 -0.3235  0.2374 -0.0616
  126ST     H1N 4064   0.419   6.267   1.491  0.4184  1.4932 -1.7311
  126ST     H1O 4065   0.446   6.149   1.365  1.3400  0.7235  1.7401
  126ST     C1P 4066   0.285   6.086   1.489 -0.2833 -0.5276 -0.5930
  126ST     H1Q 4067   0.220   6.031   1.420  0.5456 -3.4667  0.9348
  126ST     H1R 4068   0.361   6.016   1.522  0.0534 -0.2448 -0.7577
  126ST     C1S 4069   0.197   6.143   1.605 -0.1036 -1.0838 -0.8916
  126ST     H1T 4070   0.116   6.083   1.645  0.3906 -1.0227  0.2217
  126ST     H1U 4071   0.159   6.245   1.591 -2.0588 -1.4575  1.4106
  126ST     H1V 4072   0.268   6.153   1.687 -0.8674  1.5117 -0.4989
  127LA     H00 4073  -0.797   5.313   0.975  0.3847 -0.5322  0.5149
  127LA     C01 4074  -0.702   5.306   1.029  0.7483 -0.1041 -0.0662
  127LA     H02 4075  -0.734   5.314   1.132 -2.6220 -2.7887 -0.8067
  127LA     H03 4076  -0.660   5.207   1.011  0.4512 -0.0479 -1.1609
  127LA     C04 4077  -0.605   5.425   1.012 -0.4702 -0.2152  0.0207
  127LA     C05 4078  -0.509   5.406   0.921 -0.3432  0.2123  0.1921
  127LA     H06 4079  -0.463   5.315   0.954  0.1467  1.4449  3.0048
  127LA     H07 4080  -0.441   5.489   0.907  0.5581 -0.5927 -0.2049
  127LA     C08 4081  -0.673   5.550   1.004  0.0772 -0.2987  0.2317
  127LA     O09 4082  -0.790   5.575   1.030 -0.7424 -0.2388  0.0067
  127LA     O0A 4083  -0.583   5.652   0.974 -0.8379  0.3499  0.3073
  127LA     C0B 4084  -0.608   5.791   0.979 -0.0595 -0.2394 -0.6215
  127LA     H0C 4085  -0.615   5.822   1.084 -0.2489 -0.0458 -0.6898
  127LA     H0D 4086  -0.704   5.803   0.928 -0.2150 -0.6690 -0.4308
  127LA     C0E 4087  -0.488   5.858   0.914  0.0617  0.7931  0.2157
  127LA     H0F 4088  -0.397   5.822   0.962 -0.8180 -0.4627  0.9591
  127LA     H0G 4089  -0.467   5.827   0.811 -0.0493  1.5232 -0.0328
  127LA     C0H 4090  -0.496   6.006   0.922  0.8130  0.4878  0.1473
  127LA     H0I 4091  -0.587   6.041   0.874 -0.0542  0.3519  1.6383
  127LA     H0J 4092  -0.492   6.027   1.029  0.1993 -1.6989  0.6375
  127LA     C0K 4093  -0.376   6.083   0.866  0.1557 -0.2694  0.2970
  127LA     H0M 4094  -0.289   6.039   0.916  0.2946 -2.2729 -1.6087
  127LA     H0N 4095  -0.363   6.060   0.761 -0.3091  0.1100  0.1584
  127LA     C0O 4096  -0.355   6.234   0.899 -0.0209 -0.1886  0.5985
  127LA     H0P 4097  -0.451   6.287   0.896 -0.2588 -0.5080  2.0176
  127LA     H0Q 4098  -0.317   6.235   1.001  2.9098 -0.1467 -0.4704
  127LA     C0R 4099  -0.259   6.291   0.798  0.2757  0.0782 -0.2674
  127LA     H0S 4100  -0.153   6.280   0.821 -0.0019 -0.8173  0.6269
  127LA     H0T 4101  -0.273   6.247   0.700 -0.7148 -0.3775  0.0758
  127LA     C0U 4102  -0.288   6.439   0.793  0.5249  0.1864 -0.4701
  127LA     H0V 4103  -0.391   6.450   0.757 -0.2873  0.3120  1.7921
  127LA     H0W 4104  -0.314   6.478   0.892 -1.5443  0.1495 -0.9622
  127LA     C0X 4105  -0.184   6.519   0.713 -0.3047  0.6332  0.4743
  127LA     H0Y 4106  -0.158   6.466   0.622  0.1734  1.3214  0.2057
  127LA     H0Z 4107  -0.221   6.617   0.682  0.5527  0.6198 -0.5835
  127LA     C10 4108  -0.053   6.545   0.789 -0.3882 -0.2440 -0.6899
  127LA     H11 4109  -0.007   6.453   0.826 -4.7452 -2.5096 -0.6054
  127LA     H12 4110  -0.090   6.598   0.877  0.8306 -1.6503  0.7034
  127LA     C13 4111   0.047   6.629   0.706 -0.3446 -0.2434  0.1093
  127LA     H14 4112   0.136   6.633   0.768  0.5350 -2.0691 -0.9701
  127LA     H15 4113   0.015   6.730   0.683  3.1170  0.5055 -1.7467
  127LA     C16 4114   0.096   6.555   0.577  0.9731  0.2133  0.2708
  127LA     H17 4115   0.009   6.506   0.534  0.9667 -0.1352  0.6741
  127LA     H18 4116   0.175   6.484   0.602  0.2911 -0.5702  0.2145
  127LA     C19 4117   0.160   6.662   0.484  0.3786 -0.4256 -0.1241
  127LA     H1A 4118   0.244   6.707   0.538  1.5014  0.1420 -2.2789
  127LA     H1B 4119   0.085   6.740   0.467 -1.0120 -1.8718 -0.7349
  127LA     H1C 4120   0.190   6.641   0.381  1.0302  0.2647 -0.0823
  128ST     H00 4121  -0.587   5.177   0.652 -0.6064 -2.1980  0.7521
  128ST     C01 4122  -0.606   5.216   0.752  1.1195  0.0612  0.2498
  128ST     H02 4123  -0.710   5.206   0.784  0.4170 -1.7154 -2.3951
  128ST     H03 4124  -0.545   5.156   0.820 -1.4645 -3.1082 -0.0765
  128ST     C04 4125  -0.556   5.367   0.759  0.0386  0.3400 -0.3895
  128ST     C05 4126  -0.647   5.465   0.729 -0.7010 -0.6244  0.2796
  128ST     H06 4127  -0.606   5.565   0.727  0.5823 -1.1713 -2.2248
  128ST     H07 4128  -0.747   5.463   0.769 -0.8181  0.4068  0.0617
  128ST     C08 4129  -0.428   5.384   0.701  0.4036  0.2229  0.3234
  128ST     O09 4130  -0.346   5.290   0.692  0.6589 -0.1396 -1.1643
  128ST     O0A 4131  -0.401   5.512   0.661  0.0771 -0.6606 -0.5283
  128ST     C0B 4132  -0.262   5.534   0.617  0.1343 -0.7013 -0.7765
  128ST     H0C 4133  -0.197   5.504   0.699 -0.5259  0.1828  0.0781
  128ST     H0D 4134  -0.228   5.477   0.531  1.3408 -1.0270 -0.0999
  128ST     C0E 4135  -0.240   5.678   0.573  0.2360  0.0886 -0.2410
  128ST     H0F 4136  -0.139   5.699   0.536  0.3815  0.8677  0.5826
  128ST     H0G 4137  -0.233   5.737   0.664  1.4136  0.3666 -0.4939
  128ST     C0H 4138  -0.350   5.739   0.487  0.4651 -0.6833  0.0948
  128ST     H0I 4139  -0.435   5.774   0.546 -0.1876 -1.0375 -0.6224
  128ST     H0J 4140  -0.392   5.663   0.422 -1.5134 -0.6753  1.3361
  128ST     C0K 4141  -0.306   5.858   0.405 -0.1539  0.4935  0.1332
  128ST     H0M 4142  -0.398   5.907   0.372 -1.9256 -1.2409  2.2728
  128ST     H0N 4143  -0.253   5.928   0.470  0.9156  0.6410 -0.8819
  128ST     C0O 4144  -0.213   5.817   0.288 -0.3713 -0.2636 -0.5402
  128ST     H0P 4145  -0.272   5.751   0.224  1.3926 -0.2703 -2.2156
  128ST     H0Q 4146  -0.126   5.755   0.312  0.5557  0.1741 -2.6840
  128ST     C0R 4147  -0.155   5.938   0.211  0.4126 -0.3172  0.0408
  128ST     H0S 4148  -0.136   6.018   0.282 -0.6100 -0.7735  0.8350
  128ST     H0T 4149  -0.228   5.975   0.139  1.3535 -0.8417 -1.2137
  128ST     C0U 4150  -0.024   5.912   0.139  0.2431  0.8270 -0.3392
  128ST     H0V 4151  -0.027   5.817   0.085  0.0557 -0.0259  1.1381
  128ST     H0W 4152   0.049   5.904   0.220 -0.4389  1.3941  0.3389
  128ST     C0X 4153   0.010   6.033   0.051  0.2889  0.0154 -0.0880
  128ST     H0Y 4154  -0.070   6.058  -0.018  0.1739  0.6472  0.2632
  128ST     H0Z 4155   0.007   6.115   0.123 -2.7767  1.2735 -1.5628
  128ST     C10 4156   0.145   6.024  -0.021  0.2235  0.0956 -0.0653
  128ST     H11 4157   0.216   6.041   0.059  0.0359  0.4904  0.0170
  128ST     H12 4158   0.161   5.921  -0.053  2.5008  0.0774  1.0643
  128ST     C13 4159   0.166   6.136  -0.123 -0.2471  0.3724 -0.8906
  128ST     H14 4160   0.077   6.157  -0.182 -0.4322  2.8532  0.2419
  128ST     H15 4161   0.183   6.226  -0.065 -0.6402  0.3991 -0.8168
  128ST     C16 4162   0.283   6.115  -0.217 -0.1893  0.2006  0.4896
  128ST     H17 4163   0.372   6.088  -0.159  0.1655  2.2236  0.9446
  128ST     H18 4164   0.254   6.046  -0.295 -0.5959 -0.3645  1.1346
  128ST     C19 4165   0.333   6.246  -0.286  0.1887 -0.1462  0.3586
  128ST     H1A 4166   0.365   6.222  -0.387 -0.9503  1.3381 -0.3680
  128ST     H1B 4167   0.251   6.317  -0.300  0.3305 -0.0360  0.0985
  128ST     C1C 4168   0.439   6.326  -0.208  0.3020 -0.7008  0.4472
  128ST     H1D 4169   0.402   6.373  -0.117  0.0303  0.6851 -0.3620
  128ST     H1E 4170   0.517   6.258  -0.176  0.1409 -0.9399  0.3295
  128ST     C1F 4171   0.508   6.428  -0.301 -0.6566 -0.8210 -0.1980
  128ST     H1G 4172   0.573   6.365  -0.361  0.5023 -1.1367  1.3416
  128ST     H1H 4173   0.444   6.483  -0.369  1.7273  2.2745 -0.0656
  128ST     C1I 4174   0.583   6.543  -0.230 -0.1276  0.9124  0.5875
  128ST     H1J 4175   0.524   6.586  -0.148  2.1886  1.3220  2.0749
  128ST     H1K 4176   0.593   6.625  -0.301  0.6312 -1.3363 -1.9749
  128ST     C1M 4177   0.724   6.487  -0.188  0.8286 -0.1253 -0.0735
  128ST     H1N 4178   0.777   6.433  -0.267  0.6287  0.7035 -0.7767
  128ST     H1O 4179   0.722   6.413  -0.108 -0.0321 -0.6136 -0.5372
  128ST     C1P 4180   0.814   6.603  -0.159 -0.4898 -0.5975 -0.1575
  128ST     H1Q 4181   0.814   6.671  -0.244 -2.2173 -2.1980 -1.4686
  128ST     H1R 4182   0.767   6.662  -0.080 -1.9350 -0.5447 -1.0486
  128ST     C1S 4183   0.952   6.556  -0.117 -0.2854  0.2567  0.3979
  128ST     H1T 4184   1.008   6.515  -0.201  0.0379 -0.4431  0.9455
  128ST     H1U 4185   0.962   6.489  -0.031 -3.0535  2.2592  2.3381
  128ST     H1V 4186   1.003   6.644  -0.079  2.2340 -1.2538  0.6811
  129CH3n    C1 4187  -0.680   5.466   0.579  0.0676 -0.1577  0.5465
  129CH3n    H2 4188  -0.601   5.496   0.511 -2.3785  1.9884 -1.4588
  129CH3n    H3 4189  -0.744   5.550   0.552  0.5610 -0.3295 -1.2087
  129CH3n    H4 4190  -0.732   5.380   0.536  0.1083 -0.4636  1.1115
   5.05896   5.05896   5.05896
