[ atomtypes ]
; name      mass     charge  ptype       sigma     epsilon
opls_1018    1.0080    0.000    A 2.50000E-01 1.25520E-01
opls_1014   12.0110    0.000    A 3.50000E-01 2.76144E-01
opls_1031    1.0080    0.000    A 2.50000E-01 1.25520E-01
opls_1006    1.0080    0.000    A 2.50000E-01 1.25520E-01
opls_1010   15.9990    0.000    A 2.90000E-01 5.85760E-01
opls_1000    1.0080    0.000    A 2.50000E-01 1.25520E-01
opls_1013    1.0080    0.000    A 2.50000E-01 1.25520E-01
opls_1011   12.0110    0.000    A 3.50000E-01 2.76144E-01
opls_1015    1.0080    0.000    A 2.50000E-01 1.25520E-01
opls_1001   12.0110    0.000    A 3.50000E-01 2.76144E-01
opls_1030    1.0080    0.000    A 2.50000E-01 1.25520E-01
opls_1022    1.0080    0.000    A 2.50000E-01 1.25520E-01
opls_1007    1.0080    0.000    A 2.50000E-01 1.25520E-01
opls_1009   15.9990    0.000    A 2.96000E-01 8.78640E-01
opls_1021    1.0080    0.000    A 2.50000E-01 1.25520E-01
opls_1024    1.0080    0.000    A 2.50000E-01 1.25520E-01
opls_1020    1.0080    0.000    A 2.50000E-01 1.25520E-01
opls_1034    1.0080    0.000    A 2.50000E-01 1.25520E-01
opls_1003    1.0080    0.000    A 2.50000E-01 1.25520E-01
opls_1029   12.0110    0.000    A 3.50000E-01 2.76144E-01
opls_1033    1.0080    0.000    A 2.50000E-01 1.25520E-01
opls_1005   12.0110    0.000    A 3.55000E-01 3.17984E-01
opls_1019   12.0110    0.000    A 3.50000E-01 2.76144E-01
opls_1028    1.0080    0.000    A 2.50000E-01 1.25520E-01
opls_1002    1.0080    0.000    A 2.50000E-01 1.25520E-01
opls_1035    1.0080    0.000    A 2.50000E-01 1.25520E-01
opls_1004   12.0110    0.000    A 3.55000E-01 3.17984E-01
opls_1025    1.0080    0.000    A 2.50000E-01 1.25520E-01
opls_1016   12.0110    0.000    A 3.50000E-01 2.76144E-01
opls_1027    1.0080    0.000    A 2.50000E-01 1.25520E-01
opls_1032   12.0110    0.000    A 3.50000E-01 2.76144E-01
opls_1023   12.0110    0.000    A 3.50000E-01 2.76144E-01
opls_1017    1.0080    0.000    A 2.50000E-01 1.25520E-01
opls_1012    1.0080    0.000    A 2.50000E-01 1.25520E-01
opls_1026   12.0110    0.000    A 3.50000E-01 2.76144E-01
opls_1008   12.0110    0.000    A 3.55000E-01 2.92880E-01
opls_1054    1.0080    0.000    A 2.50000E-01 1.25520E-01
opls_1050   12.0110    0.000    A 3.50000E-01 2.76144E-01
opls_1067    1.0080    0.000    A 2.50000E-01 1.25520E-01
opls_1042    1.0080    0.000    A 2.50000E-01 1.25520E-01
opls_1046   15.9990    0.000    A 2.90000E-01 5.85760E-01
opls_1079    1.0080    0.000    A 2.50000E-01 1.25520E-01
opls_1072    1.0080    0.000    A 2.50000E-01 1.25520E-01
opls_1036    1.0080    0.000    A 2.50000E-01 1.25520E-01
opls_1049    1.0080    0.000    A 2.50000E-01 1.25520E-01
opls_1077   12.0110    0.000    A 3.50000E-01 2.76144E-01
opls_1047   12.0110    0.000    A 3.50000E-01 2.76144E-01
opls_1051    1.0080    0.000    A 2.50000E-01 1.25520E-01
opls_1037   12.0110    0.000    A 3.50000E-01 2.76144E-01
opls_1066    1.0080    0.000    A 2.50000E-01 1.25520E-01
opls_1058    1.0080    0.000    A 2.50000E-01 1.25520E-01
opls_1061    1.0080    0.000    A 2.50000E-01 1.25520E-01
opls_1043    1.0080    0.000    A 2.50000E-01 1.25520E-01
opls_1045   15.9990    0.000    A 2.96000E-01 8.78640E-01
opls_1057    1.0080    0.000    A 2.50000E-01 1.25520E-01
opls_1060    1.0080    0.000    A 2.50000E-01 1.25520E-01
opls_1038    1.0080    0.000    A 2.50000E-01 1.25520E-01
opls_1073    1.0080    0.000    A 2.50000E-01 1.25520E-01
opls_1070    1.0080    0.000    A 2.50000E-01 1.25520E-01
opls_1039    1.0080    0.000    A 2.50000E-01 1.25520E-01
opls_1052    1.0080    0.000    A 2.50000E-01 1.25520E-01
opls_1071   12.0110    0.000    A 3.50000E-01 2.76144E-01
opls_1082    1.0080    0.000    A 2.50000E-01 1.25520E-01
opls_1065   12.0110    0.000    A 3.50000E-01 2.76144E-01
opls_1078    1.0080    0.000    A 2.50000E-01 1.25520E-01
opls_1069    1.0080    0.000    A 2.50000E-01 1.25520E-01
opls_1074   12.0110    0.000    A 3.50000E-01 2.76144E-01
opls_1041   12.0110    0.000    A 3.55000E-01 3.17984E-01
opls_1064    1.0080    0.000    A 2.50000E-01 1.25520E-01
opls_1056   12.0110    0.000    A 3.50000E-01 2.76144E-01
opls_1040   12.0110    0.000    A 3.55000E-01 3.17984E-01
opls_1055    1.0080    0.000    A 2.50000E-01 1.25520E-01
opls_1068   12.0110    0.000    A 3.50000E-01 2.76144E-01
opls_1063    1.0080    0.000    A 2.50000E-01 1.25520E-01
opls_1075    1.0080    0.000    A 2.50000E-01 1.25520E-01
opls_1053   12.0110    0.000    A 3.50000E-01 2.76144E-01
opls_1059   12.0110    0.000    A 3.50000E-01 2.76144E-01
opls_1076    1.0080    0.000    A 2.50000E-01 1.25520E-01
opls_1048    1.0080    0.000    A 2.50000E-01 1.25520E-01
opls_1080   12.0110    0.000    A 3.50000E-01 2.76144E-01
opls_1083    1.0080    0.000    A 2.50000E-01 1.25520E-01
opls_1062   12.0110    0.000    A 3.50000E-01 2.76144E-01
opls_1081    1.0080    0.000    A 2.50000E-01 1.25520E-01
opls_1044   12.0110    0.000    A 3.55000E-01 2.92880E-01
opls_1087    1.0080    0.000    A 2.50000E-01 1.25520E-01
opls_1089   12.0110    0.000    A 3.55000E-01 2.92880E-01
opls_1091   12.0110    0.000    A 3.55000E-01 3.17984E-01
opls_1085   12.0110    0.000    A 3.50000E-01 2.76144E-01
opls_1094    1.0080    0.000    A 2.50000E-01 1.25520E-01
opls_1090   15.9990    0.000    A 2.96000E-01 8.78640E-01
opls_1098    1.0080    0.000    A 2.50000E-01 1.25520E-01
opls_1092   12.0110    0.000    A 3.55000E-01 3.17984E-01
opls_1088   15.9990    0.000    A 2.90000E-01 5.85760E-01
opls_1095   12.0110    0.000    A 3.50000E-01 2.76144E-01
opls_1096    1.0080    0.000    A 2.50000E-01 1.25520E-01
opls_1097    1.0080    0.000    A 2.50000E-01 1.25520E-01
opls_1093    1.0080    0.000    A 2.50000E-01 1.25520E-01
opls_1086    1.0080    0.000    A 2.50000E-01 1.25520E-01
opls_1084    1.0080    0.000    A 2.50000E-01 1.25520E-01
opls_1117    1.0080    0.000    A 2.50000E-01 1.25520E-01
opls_1113   12.0110    0.000    A 3.50000E-01 2.76144E-01
opls_1105    1.0080    0.000    A 2.50000E-01 1.25520E-01
opls_1109   15.9990    0.000    A 2.90000E-01 5.85760E-01
opls_1099    1.0080    0.000    A 2.50000E-01 1.25520E-01
opls_1112    1.0080    0.000    A 2.50000E-01 1.25520E-01
opls_1110   12.0110    0.000    A 3.50000E-01 2.76144E-01
opls_1114    1.0080    0.000    A 2.50000E-01 1.25520E-01
opls_1122   12.0110    0.000    A 3.50000E-01 2.76144E-01
opls_1104    1.0080    0.000    A 2.50000E-01 1.25520E-01
opls_1121    1.0080    0.000    A 2.50000E-01 1.25520E-01
opls_1124    1.0080    0.000    A 2.50000E-01 1.25520E-01
opls_1106    1.0080    0.000    A 2.50000E-01 1.25520E-01
opls_1108   15.9990    0.000    A 2.96000E-01 8.78640E-01
opls_1120    1.0080    0.000    A 2.50000E-01 1.25520E-01
opls_1123    1.0080    0.000    A 2.50000E-01 1.25520E-01
opls_1101    1.0080    0.000    A 2.50000E-01 1.25520E-01
opls_1133    1.0080    0.000    A 2.50000E-01 1.25520E-01
opls_1130    1.0080    0.000    A 2.50000E-01 1.25520E-01
opls_1102   12.0110    0.000    A 3.55000E-01 3.17984E-01
opls_1115    1.0080    0.000    A 2.50000E-01 1.25520E-01
opls_1128   12.0110    0.000    A 3.50000E-01 2.76144E-01
opls_1132    1.0080    0.000    A 2.50000E-01 1.25520E-01
opls_1127    1.0080    0.000    A 2.50000E-01 1.25520E-01
opls_1119   12.0110    0.000    A 3.50000E-01 2.76144E-01
opls_1100   12.0110    0.000    A 3.55000E-01 3.17984E-01
opls_1134    1.0080    0.000    A 2.50000E-01 1.25520E-01
opls_1118    1.0080    0.000    A 2.50000E-01 1.25520E-01
opls_1103   12.0110    0.000    A 3.50000E-01 2.76144E-01
opls_1126    1.0080    0.000    A 2.50000E-01 1.25520E-01
opls_1116   12.0110    0.000    A 3.50000E-01 2.76144E-01
opls_1131   12.0110    0.000    A 3.50000E-01 2.76144E-01
opls_1111    1.0080    0.000    A 2.50000E-01 1.25520E-01
opls_1129    1.0080    0.000    A 2.50000E-01 1.25520E-01
opls_1125   12.0110    0.000    A 3.50000E-01 2.76144E-01
opls_1107   12.0110    0.000    A 3.55000E-01 2.92880E-01
opls_1153    1.0080    0.000    A 2.50000E-01 1.25520E-01
opls_1149   12.0110    0.000    A 3.50000E-01 2.76144E-01
opls_1166    1.0080    0.000    A 2.50000E-01 1.25520E-01
opls_1141    1.0080    0.000    A 2.50000E-01 1.25520E-01
opls_1199    1.0080    0.000    A 2.50000E-01 1.25520E-01
opls_1145   15.9990    0.000    A 2.90000E-01 5.85760E-01
opls_1183    1.0080    0.000    A 2.50000E-01 1.25520E-01
opls_1178    1.0080    0.000    A 2.50000E-01 1.25520E-01
opls_1171    1.0080    0.000    A 2.50000E-01 1.25520E-01
opls_1135    1.0080    0.000    A 2.50000E-01 1.25520E-01
opls_1148    1.0080    0.000    A 2.50000E-01 1.25520E-01
opls_1195    1.0080    0.000    A 2.50000E-01 1.25520E-01
opls_1176   12.0110    0.000    A 3.50000E-01 2.76144E-01
opls_1146   12.0110    0.000    A 3.50000E-01 2.76144E-01
opls_1196    1.0080    0.000    A 2.50000E-01 1.25520E-01
opls_1150    1.0080    0.000    A 2.50000E-01 1.25520E-01
opls_1136   12.0110    0.000    A 3.50000E-01 2.76144E-01
opls_1165    1.0080    0.000    A 2.50000E-01 1.25520E-01
opls_1157    1.0080    0.000    A 2.50000E-01 1.25520E-01
opls_1188   12.0110    0.000    A 3.50000E-01 2.76144E-01
opls_1160    1.0080    0.000    A 2.50000E-01 1.25520E-01
opls_1142    1.0080    0.000    A 2.50000E-01 1.25520E-01
opls_1144   15.9990    0.000    A 2.96000E-01 8.78640E-01
opls_1156    1.0080    0.000    A 2.50000E-01 1.25520E-01
opls_1159    1.0080    0.000    A 2.50000E-01 1.25520E-01
opls_1137    1.0080    0.000    A 2.50000E-01 1.25520E-01
opls_1172    1.0080    0.000    A 2.50000E-01 1.25520E-01
opls_1187    1.0080    0.000    A 2.50000E-01 1.25520E-01
opls_1169    1.0080    0.000    A 2.50000E-01 1.25520E-01
opls_1138    1.0080    0.000    A 2.50000E-01 1.25520E-01
opls_1197   12.0110    0.000    A 3.50000E-01 2.76144E-01
opls_1151    1.0080    0.000    A 2.50000E-01 1.25520E-01
opls_1170   12.0110    0.000    A 3.50000E-01 2.76144E-01
opls_1193    1.0080    0.000    A 2.50000E-01 1.25520E-01
opls_1181    1.0080    0.000    A 2.50000E-01 1.25520E-01
opls_1164   12.0110    0.000    A 3.50000E-01 2.76144E-01
opls_1177    1.0080    0.000    A 2.50000E-01 1.25520E-01
opls_1168    1.0080    0.000    A 2.50000E-01 1.25520E-01
opls_1173   12.0110    0.000    A 3.50000E-01 2.76144E-01
opls_1140   12.0110    0.000    A 3.55000E-01 3.17984E-01
opls_1163    1.0080    0.000    A 2.50000E-01 1.25520E-01
opls_1185   12.0110    0.000    A 3.50000E-01 2.76144E-01
opls_1155   12.0110    0.000    A 3.50000E-01 2.76144E-01
opls_1139   12.0110    0.000    A 3.55000E-01 3.17984E-01
opls_1154    1.0080    0.000    A 2.50000E-01 1.25520E-01
opls_1167   12.0110    0.000    A 3.50000E-01 2.76144E-01
opls_1162    1.0080    0.000    A 2.50000E-01 1.25520E-01
opls_1174    1.0080    0.000    A 2.50000E-01 1.25520E-01
opls_1152   12.0110    0.000    A 3.50000E-01 2.76144E-01
opls_1186    1.0080    0.000    A 2.50000E-01 1.25520E-01
opls_1158   12.0110    0.000    A 3.50000E-01 2.76144E-01
opls_1194   12.0110    0.000    A 3.50000E-01 2.76144E-01
opls_1175    1.0080    0.000    A 2.50000E-01 1.25520E-01
opls_1182   12.0110    0.000    A 3.50000E-01 2.76144E-01
opls_1184    1.0080    0.000    A 2.50000E-01 1.25520E-01
opls_1147    1.0080    0.000    A 2.50000E-01 1.25520E-01
opls_1179   12.0110    0.000    A 3.50000E-01 2.76144E-01
opls_1200    1.0080    0.000    A 2.50000E-01 1.25520E-01
opls_1189    1.0080    0.000    A 2.50000E-01 1.25520E-01
opls_1161   12.0110    0.000    A 3.50000E-01 2.76144E-01
opls_1198    1.0080    0.000    A 2.50000E-01 1.25520E-01
opls_1191   12.0110    0.000    A 3.50000E-01 2.76144E-01
opls_1192    1.0080    0.000    A 2.50000E-01 1.25520E-01
opls_1180    1.0080    0.000    A 2.50000E-01 1.25520E-01
opls_1143   12.0110    0.000    A 3.55000E-01 2.92880E-01
opls_1190    1.0080    0.000    A 2.50000E-01 1.25520E-01
