Single PAMA block polymer
 4190
    1CH3n    C1    1   1.932   1.883   2.575
    1CH3n    H2    2   2.030   1.929   2.588
    1CH3n    H3    3   1.883   1.940   2.496
    1CH3n    H4    4   1.880   1.901   2.669
    2MMA    H00    5   2.375   1.647   2.645
    2MMA    C01    6   2.294   1.707   2.687
    2MMA    H02    7   2.276   1.672   2.788
    2MMA    H03    8   2.330   1.810   2.692
    2MMA    O04    9   2.179   1.699   2.604
    2MMA    C05   10   2.055   1.726   2.651
    2MMA    O06   11   2.032   1.739   2.770
    2MMA    C07   12   1.954   1.733   2.544
    2MMA    C08   13   1.844   1.650   2.567
    2MMA    H09   14   1.836   1.621   2.670
    2MMA    H0A   15   1.860   1.570   2.496
    2MMA    C0B   16   2.016   1.741   2.402
    2MMA    H0C   17   2.122   1.768   2.399
    2MMA    H0D   18   2.007   1.648   2.347
    2MMA    H0E   19   1.970   1.820   2.343
    3MMA    H00   20   1.773   1.910   2.164
    3MMA    C01   21   1.760   1.804   2.186
    3MMA    H02   22   1.683   1.764   2.120
    3MMA    H03   23   1.854   1.754   2.162
    3MMA    O04   24   1.724   1.786   2.323
    3MMA    C05   25   1.714   1.662   2.377
    3MMA    O06   26   1.727   1.561   2.308
    3MMA    C07   27   1.687   1.665   2.522
    3MMA    C08   28   1.631   1.551   2.584
    3MMA    H09   29   1.686   1.466   2.550
    3MMA    H0A   30   1.620   1.572   2.690
    3MMA    C0B   31   1.643   1.801   2.580
    3MMA    H0C   32   1.536   1.816   2.574
    3MMA    H0D   33   1.674   1.812   2.684
    3MMA    H0E   34   1.682   1.887   2.525
    4MMA    H00   35   1.672   1.151   2.338
    4MMA    C01   36   1.674   1.259   2.356
    4MMA    H02   37   1.777   1.288   2.379
    4MMA    H03   38   1.652   1.309   2.262
    4MMA    O04   39   1.588   1.296   2.465
    4MMA    C05   40   1.501   1.398   2.447
    4MMA    O06   41   1.457   1.426   2.335
    4MMA    C07   42   1.477   1.483   2.565
    4MMA    C08   43   1.450   1.421   2.688
    4MMA    H09   44   1.432   1.500   2.760
    4MMA    H0A   45   1.536   1.357   2.701
    4MMA    C0B   46   1.390   1.604   2.529
    4MMA    H0C   47   1.432   1.658   2.444
    4MMA    H0D   48   1.292   1.571   2.497
    4MMA    H0E   49   1.377   1.673   2.613
    5MMA    H00   50   1.358   1.311   3.190
    5MMA    C01   51   1.323   1.376   3.110
    5MMA    H02   52   1.214   1.379   3.114
    5MMA    H03   53   1.359   1.478   3.128
    5MMA    O04   54   1.366   1.329   2.984
    5MMA    C05   55   1.315   1.389   2.876
    5MMA    O06   56   1.245   1.490   2.884
    5MMA    C07   57   1.335   1.311   2.754
    5MMA    C08   58   1.208   1.278   2.702
    5MMA    H09   59   1.133   1.353   2.720
    5MMA    H0A   60   1.219   1.255   2.597
    5MMA    C0B   61   1.434   1.193   2.761
    5MMA    H0C   62   1.517   1.208   2.830
    5MMA    H0D   63   1.385   1.107   2.807
    5MMA    H0E   64   1.470   1.162   2.663
    6MMA    H00   65   0.912   1.210   2.364
    6MMA    C01   66   0.901   1.244   2.467
    6MMA    H02   67   0.913   1.353   2.468
    6MMA    H03   68   0.801   1.220   2.501
    6MMA    O04   69   1.000   1.184   2.550
    6MMA    C05   70   0.993   1.198   2.683
    6MMA    O06   71   0.897   1.252   2.739
    6MMA    C07   72   1.110   1.142   2.751
    6MMA    C08   73   1.084   1.113   2.890
    6MMA    H09   74   1.024   1.188   2.939
    6MMA    H0A   75   1.179   1.088   2.934
    6MMA    C0B   76   1.182   1.031   2.671
    6MMA    H0C   77   1.245   1.062   2.587
    6MMA    H0D   78   1.248   0.969   2.733
    6MMA    H0E   79   1.109   0.966   2.625
    7MMA    H00   80   1.364   0.802   3.161
    7MMA    C01   81   1.301   0.890   3.168
    7MMA    H02   82   1.259   0.895   3.269
    7MMA    H03   83   1.363   0.979   3.154
    7MMA    O04   84   1.198   0.886   3.071
    7MMA    C05   85   1.104   0.982   3.073
    7MMA    O06   86   1.099   1.067   3.163
    7MMA    C07   87   1.008   0.972   2.963
    7MMA    C08   88   0.875   0.973   3.015
    7MMA    H09   89   0.808   1.007   2.937
    7MMA    H0A   90   0.865   1.031   3.105
    7MMA    C0B   91   1.032   0.860   2.864
    7MMA    H0C   92   1.137   0.841   2.843
    7MMA    H0D   93   1.001   0.765   2.908
    7MMA    H0E   94   0.975   0.875   2.772
    8MMA    H00   95   0.608   1.081   3.392
    8MMA    C01   96   0.570   1.029   3.304
    8MMA    H02   97   0.496   0.956   3.338
    8MMA    H03   98   0.520   1.102   3.241
    8MMA    O04   99   0.677   0.962   3.238
    8MMA    C05  100   0.662   0.922   3.109
    8MMA    O06  101   0.570   0.960   3.038
    8MMA    C07  102   0.774   0.838   3.062
    8MMA    C08  103   0.817   0.746   3.161
    8MMA    H09  104   0.825   0.792   3.258
    8MMA    H0A  105   0.905   0.699   3.120
    8MMA    C0B  106   0.742   0.776   2.925
    8MMA    H0C  107   0.640   0.739   2.927
    8MMA    H0D  108   0.745   0.844   2.839
    8MMA    H0E  109   0.805   0.691   2.899
    9MMA    H00  110   0.517   0.411   2.893
    9MMA    C01  111   0.623   0.423   2.912
    9MMA    H02  112   0.665   0.325   2.935
    9MMA    H03  113   0.672   0.462   2.823
    9MMA    O04  114   0.640   0.512   3.021
    9MMA    C05  115   0.760   0.524   3.083
    9MMA    O06  116   0.864   0.478   3.037
    9MMA    C07  117   0.748   0.594   3.211
    9MMA    C08  118   0.622   0.578   3.273
    9MMA    H09  119   0.538   0.595   3.206
    9MMA    H0A  120   0.618   0.631   3.366
    9MMA    C0B  121   0.860   0.565   3.313
    9MMA    H0C  122   0.959   0.559   3.269
    9MMA    H0D  123   0.862   0.637   3.395
    9MMA    H0E  124   0.846   0.469   3.364
   10MMA    H00  125   0.645   0.162   3.664
   10MMA    C01  126   0.673   0.267   3.650
   10MMA    H02  127   0.608   0.324   3.716
   10MMA    H03  128   0.776   0.279   3.684
   10MMA    O04  129   0.661   0.303   3.512
   10MMA    C05  130   0.609   0.422   3.474
   10MMA    O06  131   0.586   0.512   3.555
   10MMA    C07  132   0.568   0.422   3.331
   10MMA    C08  133   0.429   0.415   3.316
   10MMA    H09  134   0.402   0.427   3.212
   10MMA    H0A  135   0.383   0.479   3.390
   10MMA    C0B  136   0.642   0.316   3.248
   10MMA    H0C  137   0.749   0.330   3.237
   10MMA    H0D  138   0.639   0.218   3.296
   10MMA    H0E  139   0.595   0.300   3.150
   11MMA    H00  140   0.583  -0.008   3.498
   11MMA    C01  141   0.511  -0.032   3.419
   11MMA    H02  142   0.559  -0.100   3.349
   11MMA    H03  143   0.427  -0.085   3.464
   11MMA    O04  144   0.465   0.085   3.351
   11MMA    C05  145   0.401   0.180   3.420
   11MMA    O06  146   0.398   0.179   3.543
   11MMA    C07  147   0.330   0.280   3.337
   11MMA    C08  148   0.290   0.241   3.209
   11MMA    H09  149   0.225   0.319   3.172
   11MMA    H0A  150   0.378   0.212   3.153
   11MMA    C0B  151   0.220   0.345   3.424
   11MMA    H0C  152   0.256   0.378   3.521
   11MMA    H0D  153   0.169   0.428   3.375
   11MMA    H0E  154   0.143   0.273   3.453
   12MMA    H00  155   0.417  -0.164   2.971
   12MMA    C01  156   0.470  -0.082   3.018
   12MMA    H02  157   0.523  -0.120   3.105
   12MMA    H03  158   0.543  -0.042   2.947
   12MMA    O04  159   0.378   0.020   3.054
   12MMA    C05  160   0.290   0.001   3.155
   12MMA    O06  161   0.291  -0.102   3.223
   12MMA    C07  162   0.192   0.110   3.169
   12MMA    C08  163   0.121   0.108   3.048
   12MMA    H09  164   0.057   0.022   3.057
   12MMA    H0A  165   0.184   0.096   2.961
   12MMA    C0B  166   0.104   0.080   3.291
   12MMA    H0C  167   0.030   0.158   3.311
   12MMA    H0D  168   0.047  -0.012   3.275
   12MMA    H0E  169   0.162   0.059   3.381
   13MMA    H00  170  -0.304  -0.044   3.191
   13MMA    C01  171  -0.291   0.060   3.162
   13MMA    H02  172  -0.375   0.088   3.099
   13MMA    H03  173  -0.295   0.121   3.252
   13MMA    O04  174  -0.169   0.076   3.089
   13MMA    C05  175  -0.111   0.196   3.082
   13MMA    O06  176  -0.145   0.290   3.154
   13MMA    C07  177   0.002   0.199   2.989
   13MMA    C08  178  -0.030   0.168   2.857
   13MMA    H09  179  -0.091   0.250   2.824
   13MMA    H0A  180   0.063   0.179   2.801
   13MMA    C0B  181   0.069   0.338   2.989
   13MMA    H0C  182   0.055   0.394   3.081
   13MMA    H0D  183   0.176   0.328   2.968
   13MMA    H0E  184   0.031   0.404   2.911
   14MMA    H00  185  -0.209  -0.312   3.017
   14MMA    C01  186  -0.124  -0.247   2.997
   14MMA    H02  187  -0.095  -0.198   3.089
   14MMA    H03  188  -0.040  -0.309   2.964
   14MMA    O04  189  -0.158  -0.149   2.901
   14MMA    C05  190  -0.061  -0.077   2.844
   14MMA    O06  191   0.056  -0.112   2.845
   14MMA    C07  192  -0.108   0.046   2.779
   14MMA    C08  193  -0.245   0.075   2.783
   14MMA    H09  194  -0.269   0.180   2.772
   14MMA    H0A  195  -0.296   0.030   2.867
   14MMA    C0B  196  -0.029   0.064   2.648
   14MMA    H0C  197   0.076   0.034   2.656
   14MMA    H0D  198  -0.066  -0.004   2.572
   14MMA    H0E  199  -0.029   0.166   2.610
   15MMA    H00  200  -0.594   0.422   2.657
   15MMA    C01  201  -0.570   0.342   2.727
   15MMA    H02  202  -0.531   0.387   2.819
   15MMA    H03  203  -0.662   0.290   2.752
   15MMA    O04  204  -0.474   0.254   2.672
   15MMA    C05  205  -0.455   0.133   2.730
   15MMA    O06  206  -0.518   0.100   2.831
   15MMA    C07  207  -0.355   0.049   2.663
   15MMA    C08  208  -0.393  -0.083   2.647
   15MMA    H09  209  -0.473  -0.105   2.717
   15MMA    H0A  210  -0.308  -0.147   2.663
   15MMA    C0B  211  -0.295   0.115   2.541
   15MMA    H0C  212  -0.231   0.198   2.573
   15MMA    H0D  213  -0.240   0.051   2.473
   15MMA    H0E  214  -0.375   0.161   2.484
   16MMA    H00  215  -0.654  -0.516   2.376
   16MMA    C01  216  -0.604  -0.483   2.466
   16MMA    H02  217  -0.680  -0.477   2.545
   16MMA    H03  218  -0.532  -0.558   2.496
   16MMA    O04  219  -0.540  -0.357   2.444
   16MMA    C05  220  -0.526  -0.269   2.545
   16MMA    O06  221  -0.556  -0.301   2.660
   16MMA    C07  222  -0.443  -0.154   2.504
   16MMA    C08  223  -0.490  -0.079   2.395
   16MMA    H09  224  -0.471  -0.147   2.313
   16MMA    H0A  225  -0.421  -0.001   2.367
   16MMA    C0B  226  -0.308  -0.221   2.467
   16MMA    H0C  227  -0.287  -0.309   2.529
   16MMA    H0D  228  -0.308  -0.261   2.366
   16MMA    H0E  229  -0.220  -0.157   2.473
   17MMA    H00  230  -0.984  -0.104   2.314
   17MMA    C01  231  -0.929  -0.012   2.331
   17MMA    H02  232  -0.878  -0.002   2.235
   17MMA    H03  233  -0.995   0.075   2.334
   17MMA    O04  234  -0.847  -0.018   2.448
   17MMA    C05  235  -0.712   0.000   2.451
   17MMA    O06  236  -0.662   0.051   2.550
   17MMA    C07  237  -0.636  -0.034   2.332
   17MMA    C08  238  -0.591   0.072   2.254
   17MMA    H09  239  -0.550   0.143   2.323
   17MMA    H0A  240  -0.542   0.040   2.163
   17MMA    C0B  241  -0.679  -0.166   2.262
   17MMA    H0C  242  -0.771  -0.162   2.203
   17MMA    H0D  243  -0.611  -0.207   2.188
   17MMA    H0E  244  -0.704  -0.241   2.337
   18MMA    H00  245  -0.809  -0.137   1.923
   18MMA    C01  246  -0.834  -0.034   1.946
   18MMA    H02  247  -0.839   0.022   1.852
   18MMA    H03  248  -0.934  -0.034   1.989
   18MMA    O04  249  -0.738   0.025   2.034
   18MMA    C05  250  -0.772   0.140   2.095
   18MMA    O06  251  -0.878   0.196   2.072
   18MMA    C07  252  -0.676   0.196   2.189
   18MMA    C08  253  -0.600   0.283   2.113
   18MMA    H09  254  -0.580   0.244   2.014
   18MMA    H0A  255  -0.660   0.373   2.101
   18MMA    C0B  256  -0.754   0.265   2.304
   18MMA    H0C  257  -0.857   0.231   2.314
   18MMA    H0D  258  -0.709   0.257   2.403
   18MMA    H0E  259  -0.769   0.371   2.285
   19MMA    H00  260  -0.203   0.017   2.257
   19MMA    C01  261  -0.249   0.063   2.169
   19MMA    H02  262  -0.172   0.086   2.096
   19MMA    H03  263  -0.315  -0.011   2.124
   19MMA    O04  264  -0.321   0.180   2.205
   19MMA    C05  265  -0.379   0.248   2.106
   19MMA    O06  266  -0.353   0.224   1.987
   19MMA    C07  267  -0.465   0.356   2.153
   19MMA    C08  268  -0.473   0.469   2.076
   19MMA    H09  269  -0.540   0.543   2.117
   19MMA    H0A  270  -0.472   0.448   1.970
   19MMA    C0B  271  -0.481   0.385   2.301
   19MMA    H0C  272  -0.466   0.307   2.376
   19MMA    H0D  273  -0.395   0.449   2.323
   19MMA    H0E  274  -0.568   0.445   2.326
   20MMA    H00  275  -0.245   0.860   1.755
   20MMA    C01  276  -0.337   0.818   1.795
   20MMA    H02  277  -0.388   0.896   1.851
   20MMA    H03  278  -0.400   0.789   1.711
   20MMA    O04  279  -0.308   0.708   1.879
   20MMA    C05  280  -0.406   0.650   1.951
   20MMA    O06  281  -0.525   0.676   1.933
   20MMA    C07  282  -0.350   0.571   2.063
   20MMA    C08  283  -0.333   0.663   2.165
   20MMA    H09  284  -0.420   0.725   2.182
   20MMA    H0A  285  -0.264   0.732   2.119
   20MMA    C0B  286  -0.227   0.497   2.006
   20MMA    H0C  287  -0.142   0.564   1.998
   20MMA    H0D  288  -0.194   0.411   2.064
   20MMA    H0E  289  -0.247   0.460   1.905
   21MMA    H00  290  -0.308   1.057   2.184
   21MMA    C01  291  -0.262   1.028   2.278
   21MMA    H02  292  -0.156   1.052   2.274
   21MMA    H03  293  -0.306   1.087   2.358
   21MMA    O04  294  -0.287   0.890   2.303
   21MMA    C05  295  -0.195   0.796   2.274
   21MMA    O06  296  -0.085   0.824   2.225
   21MMA    C07  297  -0.247   0.660   2.300
   21MMA    C08  298  -0.159   0.555   2.287
   21MMA    H09  299  -0.079   0.585   2.220
   21MMA    H0A  300  -0.204   0.457   2.275
   21MMA    C0B  301  -0.355   0.664   2.412
   21MMA    H0C  302  -0.455   0.691   2.378
   21MMA    H0D  303  -0.368   0.576   2.474
   21MMA    H0E  304  -0.328   0.741   2.485
   22MMA    H00  305   0.029   0.888   2.489
   22MMA    C01  306   0.108   0.813   2.483
   22MMA    H02  307   0.195   0.856   2.434
   22MMA    H03  308   0.135   0.787   2.586
   22MMA    O04  309   0.061   0.697   2.415
   22MMA    C05  310  -0.036   0.629   2.475
   22MMA    O06  311  -0.095   0.676   2.573
   22MMA    C07  312  -0.073   0.501   2.412
   22MMA    C08  313   0.017   0.410   2.355
   22MMA    H09  314  -0.014   0.310   2.380
   22MMA    H0A  315   0.010   0.412   2.247
   22MMA    C0B  316  -0.166   0.427   2.509
   22MMA    H0C  317  -0.223   0.486   2.581
   22MMA    H0D  318  -0.237   0.364   2.456
   22MMA    H0E  319  -0.103   0.367   2.575
   23MMA    H00  320   0.359   0.688   2.593
   23MMA    C01  321   0.418   0.606   2.552
   23MMA    H02  322   0.514   0.645   2.519
   23MMA    H03  323   0.436   0.535   2.633
   23MMA    O04  324   0.349   0.541   2.445
   23MMA    C05  325   0.226   0.491   2.470
   23MMA    O06  326   0.179   0.506   2.584
   23MMA    C07  327   0.176   0.391   2.372
   23MMA    C08  328   0.221   0.397   2.238
   23MMA    H09  329   0.314   0.450   2.251
   23MMA    H0A  330   0.179   0.476   2.177
   23MMA    C0B  331   0.206   0.268   2.463
   23MMA    H0C  332   0.150   0.175   2.449
   23MMA    H0D  333   0.312   0.246   2.461
   23MMA    H0E  334   0.188   0.281   2.570
   24MMA    H00  335   0.020   0.174   2.209
   24MMA    C01  336   0.062   0.081   2.246
   24MMA    H02  337   0.018   0.065   2.345
   24MMA    H03  338   0.024  -0.005   2.191
   24MMA    O04  339   0.204   0.073   2.254
   24MMA    C05  340   0.302   0.164   2.216
   24MMA    O06  341   0.413   0.145   2.265
   24MMA    C07  342   0.275   0.280   2.129
   24MMA    C08  343   0.195   0.263   2.014
   24MMA    H09  344   0.094   0.228   2.034
   24MMA    H0A  345   0.206   0.347   1.947
   24MMA    C0B  346   0.404   0.361   2.096
   24MMA    H0C  347   0.460   0.319   2.013
   24MMA    H0D  348   0.386   0.463   2.064
   24MMA    H0E  349   0.478   0.362   2.177
   25MMA    H00  350   0.596  -0.007   1.909
   25MMA    C01  351   0.565   0.066   1.983
   25MMA    H02  352   0.589   0.026   2.082
   25MMA    H03  353   0.623   0.158   1.973
   25MMA    O04  354   0.425   0.090   1.978
   25MMA    C05  355   0.357   0.127   1.868
   25MMA    O06  356   0.408   0.135   1.757
   25MMA    C07  357   0.214   0.144   1.897
   25MMA    C08  358   0.135   0.185   1.788
   25MMA    H09  359   0.192   0.244   1.718
   25MMA    H0A  360   0.041   0.229   1.821
   25MMA    C0B  361   0.170   0.016   1.967
   25MMA    H0C  362   0.064   0.014   1.994
   25MMA    H0D  363   0.187  -0.070   1.901
   25MMA    H0E  364   0.233  -0.016   2.049
   26MMA    H00  365   0.383  -0.116   1.518
   26MMA    C01  366   0.312  -0.059   1.459
   26MMA    H02  367   0.367  -0.005   1.381
   26MMA    H03  368   0.244  -0.128   1.410
   26MMA    O04  369   0.240   0.033   1.540
   26MMA    C05  370   0.162  -0.016   1.639
   26MMA    O06  371   0.175  -0.132   1.679
   26MMA    C07  372   0.059   0.081   1.683
   26MMA    C08  373   0.009   0.142   1.567
   26MMA    H09  374   0.008   0.068   1.489
   26MMA    H0A  375   0.081   0.213   1.528
   26MMA    C0B  376  -0.048   0.005   1.764
   26MMA    H0C  377  -0.014  -0.089   1.808
   26MMA    H0D  378  -0.090   0.063   1.846
   26MMA    H0E  379  -0.129  -0.025   1.699
   27MMA    H00  380  -0.002   0.553   1.777
   27MMA    C01  381   0.017   0.517   1.676
   27MMA    H02  382  -0.018   0.594   1.607
   27MMA    H03  383   0.124   0.506   1.663
   27MMA    O04  384  -0.048   0.393   1.656
   27MMA    C05  385  -0.071   0.346   1.531
   27MMA    O06  386  -0.041   0.412   1.431
   27MMA    C07  387  -0.132   0.212   1.531
   27MMA    C08  388  -0.175   0.176   1.400
   27MMA    H09  389  -0.091   0.165   1.333
   27MMA    H0A  390  -0.220   0.265   1.358
   27MMA    C0B  391  -0.232   0.211   1.649
   27MMA    H0C  392  -0.184   0.228   1.746
   27MMA    H0D  393  -0.302   0.294   1.640
   27MMA    H0E  394  -0.290   0.119   1.659
   28MMA    H00  395  -0.408  -0.246   1.607
   28MMA    C01  396  -0.337  -0.166   1.626
   28MMA    H02  397  -0.361  -0.123   1.723
   28MMA    H03  398  -0.237  -0.210   1.632
   28MMA    O04  399  -0.348  -0.065   1.526
   28MMA    C05  400  -0.252  -0.041   1.434
   28MMA    O06  401  -0.151  -0.111   1.421
   28MMA    C07  402  -0.289   0.070   1.346
   28MMA    C08  403  -0.270   0.054   1.205
   28MMA    H09  404  -0.295   0.144   1.151
   28MMA    H0A  405  -0.181  -0.002   1.181
   28MMA    C0B  406  -0.415   0.147   1.388
   28MMA    H0C  407  -0.502   0.081   1.390
   28MMA    H0D  408  -0.413   0.189   1.488
   28MMA    H0E  409  -0.439   0.230   1.320
   29MMA    H00  410  -0.764  -0.160   1.205
   29MMA    C01  411  -0.718  -0.082   1.144
   29MMA    H02  412  -0.703  -0.123   1.044
   29MMA    H03  413  -0.784   0.004   1.139
   29MMA    O04  414  -0.592  -0.052   1.198
   29MMA    C05  415  -0.505   0.027   1.133
   29MMA    O06  416  -0.534   0.142   1.103
   29MMA    C07  417  -0.375  -0.039   1.112
   29MMA    C08  418  -0.351  -0.079   0.976
   29MMA    H09  419  -0.269  -0.148   0.971
   29MMA    H0A  420  -0.443  -0.130   0.952
   29MMA    C0B  421  -0.369  -0.169   1.195
   29MMA    H0C  422  -0.268  -0.206   1.210
   29MMA    H0D  423  -0.417  -0.162   1.292
   29MMA    H0E  424  -0.426  -0.249   1.146
   30MMA    H00  425  -0.784   0.036   0.891
   30MMA    C01  426  -0.701   0.092   0.848
   30MMA    H02  427  -0.689   0.182   0.908
   30MMA    H03  428  -0.731   0.124   0.748
   30MMA    O04  429  -0.581   0.015   0.843
   30MMA    C05  430  -0.463   0.079   0.825
   30MMA    O06  431  -0.455   0.202   0.822
   30MMA    C07  432  -0.346  -0.009   0.822
   30MMA    C08  433  -0.346  -0.111   0.722
   30MMA    H09  434  -0.250  -0.161   0.717
   30MMA    H0A  435  -0.436  -0.170   0.729
   30MMA    C0B  436  -0.215   0.066   0.841
   30MMA    H0C  437  -0.128   0.001   0.834
   30MMA    H0D  438  -0.205   0.145   0.766
   30MMA    H0E  439  -0.214   0.116   0.938
   31MMA    H00  440  -0.340   0.296   0.422
   31MMA    C01  441  -0.380   0.272   0.521
   31MMA    H02  442  -0.307   0.302   0.596
   31MMA    H03  443  -0.471   0.329   0.537
   31MMA    O04  444  -0.409   0.134   0.531
   31MMA    C05  445  -0.310   0.043   0.533
   31MMA    O06  446  -0.192   0.071   0.513
   31MMA    C07  447  -0.363  -0.091   0.551
   31MMA    C08  448  -0.293  -0.192   0.479
   31MMA    H09  449  -0.332  -0.285   0.518
   31MMA    H0A  450  -0.187  -0.171   0.478
   31MMA    C0B  451  -0.516  -0.101   0.545
   31MMA    H0C  452  -0.569  -0.040   0.619
   31MMA    H0D  453  -0.550  -0.057   0.452
   31MMA    H0E  454  -0.555  -0.203   0.551
   32MMA    H00  455  -0.734  -0.182   0.248
   32MMA    C01  456  -0.672  -0.264   0.282
   32MMA    H02  457  -0.709  -0.300   0.378
   32MMA    H03  458  -0.682  -0.345   0.209
   32MMA    O04  459  -0.536  -0.221   0.290
   32MMA    C05  460  -0.441  -0.306   0.329
   32MMA    O06  461  -0.468  -0.416   0.376
   32MMA    C07  462  -0.305  -0.252   0.317
   32MMA    C08  463  -0.277  -0.169   0.205
   32MMA    H09  464  -0.351  -0.091   0.211
   32MMA    H0A  465  -0.171  -0.146   0.201
   32MMA    C0B  466  -0.196  -0.358   0.332
   32MMA    H0C  467  -0.188  -0.420   0.243
   32MMA    H0D  468  -0.098  -0.315   0.348
   32MMA    H0E  469  -0.215  -0.427   0.415
   33MMA    H00  470  -0.443  -0.521  -0.023
   33MMA    C01  471  -0.454  -0.454   0.063
   33MMA    H02  472  -0.524  -0.503   0.131
   33MMA    H03  473  -0.358  -0.448   0.114
   33MMA    O04  474  -0.506  -0.329   0.019
   33MMA    C05  475  -0.450  -0.202   0.028
   33MMA    O06  476  -0.527  -0.107   0.028
   33MMA    C07  477  -0.302  -0.187   0.033
   33MMA    C08  478  -0.249  -0.271  -0.071
   33MMA    H09  479  -0.303  -0.233  -0.156
   33MMA    H0A  480  -0.275  -0.376  -0.068
   33MMA    C0B  481  -0.270  -0.039   0.003
   33MMA    H0C  482  -0.169  -0.011   0.032
   33MMA    H0D  483  -0.282  -0.016  -0.102
   33MMA    H0E  484  -0.335   0.034   0.051
   34MMA    H00  485  -0.070   0.125  -0.228
   34MMA    C01  486  -0.062   0.050  -0.307
   34MMA    H02  487  -0.112   0.088  -0.396
   34MMA    H03  488   0.043   0.037  -0.331
   34MMA    O04  489  -0.121  -0.073  -0.267
   34MMA    C05  490  -0.060  -0.148  -0.174
   34MMA    O06  491   0.029  -0.105  -0.101
   34MMA    C07  492  -0.114  -0.284  -0.167
   34MMA    C08  493  -0.146  -0.344  -0.290
   34MMA    H09  494  -0.179  -0.446  -0.282
   34MMA    H0A  495  -0.204  -0.280  -0.356
   34MMA    C0B  496  -0.046  -0.375  -0.070
   34MMA    H0C  497   0.060  -0.349  -0.071
   34MMA    H0D  498  -0.082  -0.362   0.032
   34MMA    H0E  499  -0.054  -0.481  -0.096
   35MMA    H00  500  -0.304  -0.333  -0.761
   35MMA    C01  501  -0.224  -0.401  -0.731
   35MMA    H02  502  -0.268  -0.500  -0.721
   35MMA    H03  503  -0.152  -0.405  -0.812
   35MMA    O04  504  -0.160  -0.352  -0.613
   35MMA    C05  505  -0.130  -0.435  -0.511
   35MMA    O06  506  -0.171  -0.551  -0.506
   35MMA    C07  507  -0.036  -0.375  -0.413
   35MMA    C08  508   0.061  -0.465  -0.371
   35MMA    H09  509   0.028  -0.567  -0.380
   35MMA    H0A  510   0.091  -0.434  -0.273
   35MMA    C0B  511   0.010  -0.237  -0.459
   35MMA    H0C  512  -0.073  -0.171  -0.486
   35MMA    H0D  513   0.073  -0.185  -0.387
   35MMA    H0E  514   0.065  -0.246  -0.552
   36MMA    H00  515   0.313  -0.267  -0.812
   36MMA    C01  516   0.294  -0.370  -0.779
   36MMA    H02  517   0.209  -0.408  -0.836
   36MMA    H03  518   0.382  -0.430  -0.805
   36MMA    O04  519   0.273  -0.374  -0.639
   36MMA    C05  520   0.205  -0.476  -0.581
   36MMA    O06  521   0.157  -0.566  -0.650
   36MMA    C07  522   0.215  -0.476  -0.434
   36MMA    C08  523   0.250  -0.602  -0.383
   36MMA    H09  524   0.216  -0.677  -0.452
   36MMA    H0A  525   0.208  -0.608  -0.284
   36MMA    C0B  526   0.276  -0.342  -0.379
   36MMA    H0C  527   0.265  -0.258  -0.448
   36MMA    H0D  528   0.238  -0.304  -0.284
   36MMA    H0E  529   0.384  -0.343  -0.366
   37MMA    H00  530   0.201  -1.050  -0.457
   37MMA    C01  531   0.301  -1.007  -0.446
   37MMA    H02  532   0.355  -1.066  -0.372
   37MMA    H03  533   0.353  -1.015  -0.541
   37MMA    O04  534   0.293  -0.871  -0.404
   37MMA    C05  535   0.408  -0.803  -0.390
   37MMA    O06  536   0.517  -0.858  -0.408
   37MMA    C07  537   0.400  -0.662  -0.341
   37MMA    C08  538   0.440  -0.661  -0.205
   37MMA    H09  539   0.521  -0.592  -0.185
   37MMA    H0A  540   0.476  -0.759  -0.176
   37MMA    C0B  541   0.493  -0.587  -0.440
   37MMA    H0C  542   0.596  -0.588  -0.404
   37MMA    H0D  543   0.497  -0.639  -0.535
   37MMA    H0E  544   0.469  -0.486  -0.471
   38MMA    H00  545   0.472  -0.921  -0.036
   38MMA    C01  546   0.369  -0.955  -0.047
   38MMA    H02  547   0.376  -1.054  -0.093
   38MMA    H03  548   0.324  -0.968   0.051
   38MMA    O04  549   0.289  -0.872  -0.131
   38MMA    C05  550   0.243  -0.747  -0.100
   38MMA    O06  551   0.123  -0.724  -0.112
   38MMA    C07  552   0.343  -0.641  -0.073
   38MMA    C08  553   0.399  -0.653   0.053
   38MMA    H09  554   0.420  -0.754   0.088
   38MMA    H0A  555   0.474  -0.577   0.070
   38MMA    C0B  556   0.326  -0.494  -0.111
   38MMA    H0C  557   0.370  -0.423  -0.041
   38MMA    H0D  558   0.377  -0.463  -0.202
   38MMA    H0E  559   0.220  -0.471  -0.120
   39MMA    H00  560   0.252  -0.175   0.185
   39MMA    C01  561   0.213  -0.263   0.134
   39MMA    H02  562   0.106  -0.268   0.153
   39MMA    H03  563   0.227  -0.246   0.027
   39MMA    O04  564   0.281  -0.382   0.175
   39MMA    C05  565   0.228  -0.502   0.145
   39MMA    O06  566   0.117  -0.511   0.096
   39MMA    C07  567   0.307  -0.618   0.188
   39MMA    C08  568   0.233  -0.731   0.218
   39MMA    H09  569   0.177  -0.748   0.127
   39MMA    H0A  570   0.287  -0.812   0.266
   39MMA    C0B  571   0.419  -0.581   0.287
   39MMA    H0C  572   0.494  -0.659   0.294
   39MMA    H0D  573   0.470  -0.489   0.262
   39MMA    H0E  574   0.378  -0.565   0.387
   40MMA    H00  575  -0.269  -0.673   0.056
   40MMA    C01  576  -0.179  -0.734   0.052
   40MMA    H02  577  -0.210  -0.838   0.066
   40MMA    H03  578  -0.135  -0.727  -0.047
   40MMA    O04  579  -0.086  -0.695   0.152
   40MMA    C05  580   0.013  -0.781   0.182
   40MMA    O06  581   0.019  -0.893   0.130
   40MMA    C07  582   0.090  -0.738   0.301
   40MMA    C08  583   0.097  -0.838   0.395
   40MMA    H09  584   0.113  -0.937   0.355
   40MMA    H0A  585   0.155  -0.804   0.479
   40MMA    C0B  586   0.070  -0.598   0.364
   40MMA    H0C  587   0.000  -0.538   0.307
   40MMA    H0D  588   0.033  -0.601   0.466
   40MMA    H0E  589   0.161  -0.540   0.379
   41MMA    H00  590  -0.009  -1.314   0.550
   41MMA    C01  591  -0.044  -1.248   0.470
   41MMA    H02  592  -0.005  -1.283   0.375
   41MMA    H03  593  -0.153  -1.255   0.467
   41MMA    O04  594  -0.004  -1.114   0.495
   41MMA    C05  595  -0.050  -1.019   0.413
   41MMA    O06  596  -0.113  -1.047   0.311
   41MMA    C07  597  -0.040  -0.885   0.473
   41MMA    C08  598  -0.145  -0.800   0.446
   41MMA    H09  599  -0.178  -0.806   0.344
   41MMA    H0A  600  -0.135  -0.706   0.499
   41MMA    C0B  601   0.018  -0.884   0.616
   41MMA    H0C  602  -0.044  -0.946   0.680
   41MMA    H0D  603   0.115  -0.932   0.626
   41MMA    H0E  604   0.020  -0.784   0.660
   42MMA    H00  605  -0.234  -1.001   0.902
   42MMA    C01  606  -0.252  -0.902   0.860
   42MMA    H02  607  -0.342  -0.860   0.905
   42MMA    H03  608  -0.169  -0.838   0.886
   42MMA    O04  609  -0.268  -0.910   0.719
   42MMA    C05  610  -0.275  -0.798   0.648
   42MMA    O06  611  -0.257  -0.687   0.700
   42MMA    C07  612  -0.297  -0.817   0.504
   42MMA    C08  613  -0.341  -0.937   0.453
   42MMA    H09  614  -0.284  -1.019   0.492
   42MMA    H0A  615  -0.356  -0.916   0.348
   42MMA    C0B  616  -0.355  -0.690   0.438
   42MMA    H0C  617  -0.285  -0.628   0.383
   42MMA    H0D  618  -0.433  -0.712   0.365
   42MMA    H0E  619  -0.404  -0.626   0.512
   43MMA    H00  620  -0.844  -0.965   0.689
   43MMA    C01  621  -0.825  -0.942   0.584
   43MMA    H02  622  -0.908  -0.983   0.527
   43MMA    H03  623  -0.828  -0.834   0.572
   43MMA    O04  624  -0.703  -1.003   0.543
   43MMA    C05  625  -0.596  -0.930   0.502
   43MMA    O06  626  -0.596  -0.808   0.515
   43MMA    C07  627  -0.481  -1.018   0.479
   43MMA    C08  628  -0.482  -1.108   0.372
   43MMA    H09  629  -0.449  -1.203   0.411
   43MMA    H0A  630  -0.405  -1.092   0.298
   43MMA    C0B  631  -0.465  -1.086   0.617
   43MMA    H0C  632  -0.541  -1.163   0.631
   43MMA    H0D  633  -0.369  -1.135   0.635
   43MMA    H0E  634  -0.482  -1.015   0.697
   44MMA    H00  635  -0.588  -0.817   0.272
   44MMA    C01  636  -0.678  -0.827   0.211
   44MMA    H02  637  -0.764  -0.787   0.265
   44MMA    H03  638  -0.659  -0.769   0.121
   44MMA    O04  639  -0.688  -0.962   0.174
   44MMA    C05  640  -0.714  -1.060   0.257
   44MMA    O06  641  -0.824  -1.070   0.311
   44MMA    C07  642  -0.601  -1.155   0.272
   44MMA    C08  643  -0.545  -1.202   0.153
   44MMA    H09  644  -0.460  -1.262   0.181
   44MMA    H0A  645  -0.609  -1.281   0.117
   44MMA    C0B  646  -0.654  -1.273   0.356
   44MMA    H0C  647  -0.746  -1.312   0.313
   44MMA    H0D  648  -0.585  -1.358   0.359
   44MMA    H0E  649  -0.678  -1.243   0.458
   45MMA    H00  650  -0.927  -1.221  -0.027
   45MMA    C01  651  -0.861  -1.141  -0.061
   45MMA    H02  652  -0.877  -1.125  -0.168
   45MMA    H03  653  -0.888  -1.050  -0.008
   45MMA    O04  654  -0.727  -1.176  -0.035
   45MMA    C05  655  -0.629  -1.084  -0.050
   45MMA    O06  656  -0.648  -0.972  -0.099
   45MMA    C07  657  -0.504  -1.126   0.013
   45MMA    C08  658  -0.444  -1.231  -0.051
   45MMA    H09  659  -0.512  -1.303  -0.093
   45MMA    H0A  660  -0.360  -1.262   0.009
   45MMA    C0B  661  -0.418  -1.012   0.067
   45MMA    H0C  662  -0.463  -0.955   0.148
   45MMA    H0D  663  -0.321  -1.047   0.104
   45MMA    H0E  664  -0.404  -0.937  -0.011
   46MMA    H00  665   0.009  -1.268  -0.202
   46MMA    C01  666  -0.034  -1.347  -0.139
   46MMA    H02  667  -0.062  -1.431  -0.202
   46MMA    H03  668   0.043  -1.382  -0.069
   46MMA    O04  669  -0.145  -1.295  -0.070
   46MMA    C05  670  -0.266  -1.329  -0.114
   46MMA    O06  671  -0.304  -1.446  -0.114
   46MMA    C07  672  -0.341  -1.218  -0.175
   46MMA    C08  673  -0.385  -1.261  -0.300
   46MMA    H09  674  -0.456  -1.341  -0.292
   46MMA    H0A  675  -0.300  -1.313  -0.342
   46MMA    C0B  676  -0.257  -1.089  -0.167
   46MMA    H0C  677  -0.166  -1.099  -0.225
   46MMA    H0D  678  -0.313  -1.002  -0.200
   46MMA    H0E  679  -0.214  -1.070  -0.068
   47MMA    H00  680  -0.739  -0.906  -0.568
   47MMA    C01  681  -0.723  -0.978  -0.488
   47MMA    H02  682  -0.746  -0.931  -0.393
   47MMA    H03  683  -0.792  -1.061  -0.503
   47MMA    O04  684  -0.589  -1.025  -0.489
   47MMA    C05  685  -0.554  -1.120  -0.401
   47MMA    O06  686  -0.635  -1.170  -0.324
   47MMA    C07  687  -0.427  -1.183  -0.434
   47MMA    C08  688  -0.326  -1.100  -0.482
   47MMA    H09  689  -0.252  -1.098  -0.404
   47MMA    H0A  690  -0.354  -0.995  -0.484
   47MMA    C0B  691  -0.471  -1.301  -0.520
   47MMA    H0C  692  -0.570  -1.338  -0.492
   47MMA    H0D  693  -0.482  -1.268  -0.624
   47MMA    H0E  694  -0.406  -1.388  -0.515
   48MMA    H00  695   0.074  -0.863  -0.705
   48MMA    C01  696   0.009  -0.841  -0.621
   48MMA    H02  697   0.066  -0.854  -0.529
   48MMA    H03  698  -0.019  -0.735  -0.626
   48MMA    O04  699  -0.109  -0.919  -0.629
   48MMA    C05  700  -0.123  -1.030  -0.554
   48MMA    O06  701  -0.043  -1.058  -0.465
   48MMA    C07  702  -0.227  -1.119  -0.609
   48MMA    C08  703  -0.195  -1.252  -0.614
   48MMA    H09  704  -0.148  -1.273  -0.520
   48MMA    H0A  705  -0.275  -1.307  -0.661
   48MMA    C0B  706  -0.309  -1.058  -0.724
   48MMA    H0C  707  -0.244  -1.039  -0.809
   48MMA    H0D  708  -0.390  -1.123  -0.757
   48MMA    H0E  709  -0.351  -0.961  -0.697
   49MMA    H00  710  -0.386  -1.230  -1.001
   49MMA    C01  711  -0.282  -1.260  -1.012
   49MMA    H02  712  -0.275  -1.336  -1.090
   49MMA    H03  713  -0.230  -1.171  -1.048
   49MMA    O04  714  -0.232  -1.311  -0.888
   49MMA    C05  715  -0.111  -1.273  -0.844
   49MMA    O06  716  -0.040  -1.196  -0.910
   49MMA    C07  717  -0.080  -1.319  -0.708
   49MMA    C08  718  -0.091  -1.458  -0.693
   49MMA    H09  719  -0.097  -1.504  -0.791
   49MMA    H0A  720  -0.190  -1.486  -0.660
   49MMA    C0B  721   0.052  -1.249  -0.670
   49MMA    H0C  722   0.049  -1.143  -0.692
   49MMA    H0D  723   0.077  -1.256  -0.564
   49MMA    H0E  724   0.135  -1.281  -0.732
   50MMA    H00  725   0.264  -1.359  -0.516
   50MMA    C01  726   0.246  -1.444  -0.449
   50MMA    H02  727   0.287  -1.534  -0.493
   50MMA    H03  728   0.304  -1.425  -0.359
   50MMA    O04  729   0.110  -1.453  -0.409
   50MMA    C05  730  -0.002  -1.485  -0.481
   50MMA    O06  731  -0.109  -1.466  -0.427
   50MMA    C07  732   0.003  -1.560  -0.606
   50MMA    C08  733  -0.072  -1.677  -0.601
   50MMA    H09  734  -0.166  -1.669  -0.548
   50MMA    H0A  735  -0.069  -1.735  -0.692
   50MMA    C0B  736   0.127  -1.562  -0.698
   50MMA    H0C  737   0.102  -1.580  -0.802
   50MMA    H0D  738   0.187  -1.470  -0.696
   50MMA    H0E  739   0.199  -1.640  -0.672
   51MMA    H00  740   0.281  -1.892  -0.813
   51MMA    C01  741   0.215  -1.950  -0.748
   51MMA    H02  742   0.148  -2.008  -0.812
   51MMA    H03  743   0.276  -2.020  -0.691
   51MMA    O04  744   0.147  -1.862  -0.658
   51MMA    C05  745   0.023  -1.892  -0.614
   51MMA    O06  746  -0.039  -1.989  -0.658
   51MMA    C07  747  -0.025  -1.802  -0.507
   51MMA    C08  748  -0.130  -1.865  -0.440
   51MMA    H09  749  -0.105  -1.968  -0.422
   51MMA    H0A  750  -0.211  -1.876  -0.510
   51MMA    C0B  751   0.095  -1.765  -0.420
   51MMA    H0C  752   0.173  -1.710  -0.473
   51MMA    H0D  753   0.068  -1.706  -0.331
   51MMA    H0E  754   0.146  -1.856  -0.388
   52MMA    H00  755  -0.609  -1.748  -0.463
   52MMA    C01  756  -0.567  -1.823  -0.396
   52MMA    H02  757  -0.624  -1.820  -0.303
   52MMA    H03  758  -0.580  -1.921  -0.442
   52MMA    O04  759  -0.431  -1.791  -0.369
   52MMA    C05  760  -0.335  -1.886  -0.357
   52MMA    O06  761  -0.359  -2.005  -0.377
   52MMA    C07  762  -0.208  -1.834  -0.301
   52MMA    C08  763  -0.181  -1.910  -0.187
   52MMA    H09  764  -0.195  -2.016  -0.201
   52MMA    H0A  765  -0.258  -1.875  -0.120
   52MMA    C0B  766  -0.218  -1.684  -0.283
   52MMA    H0C  767  -0.283  -1.664  -0.197
   52MMA    H0D  768  -0.122  -1.637  -0.264
   52MMA    H0E  769  -0.266  -1.632  -0.366
   53MMA    H00  770   0.176  -1.554  -0.019
   53MMA    C01  771   0.103  -1.621   0.028
   53MMA    H02  772   0.160  -1.693   0.086
   53MMA    H03  773   0.039  -1.564   0.094
   53MMA    O04  774   0.031  -1.690  -0.072
   53MMA    C05  775  -0.078  -1.759  -0.037
   53MMA    O06  776  -0.168  -1.710   0.031
   53MMA    C07  777  -0.066  -1.901  -0.073
   53MMA    C08  778  -0.111  -1.991   0.024
   53MMA    H09  779  -0.204  -1.959   0.068
   53MMA    H0A  780  -0.097  -2.093  -0.010
   53MMA    C0B  781   0.056  -1.943  -0.155
   53MMA    H0C  782   0.129  -1.864  -0.171
   53MMA    H0D  783   0.114  -2.024  -0.111
   53MMA    H0E  784   0.025  -1.982  -0.252
   54MMA    H00  785   0.255  -2.272  -0.022
   54MMA    C01  786   0.257  -2.191   0.051
   54MMA    H02  787   0.310  -2.226   0.140
   54MMA    H03  788   0.313  -2.108   0.008
   54MMA    O04  789   0.125  -2.155   0.086
   54MMA    C05  790   0.101  -2.034   0.139
   54MMA    O06  791   0.186  -1.946   0.147
   54MMA    C07  792  -0.040  -2.015   0.172
   54MMA    C08  793  -0.106  -2.128   0.220
   54MMA    H09  794  -0.088  -2.217   0.162
   54MMA    H0A  795  -0.209  -2.100   0.235
   54MMA    C0B  796  -0.068  -1.882   0.243
   54MMA    H0C  797  -0.016  -1.798   0.196
   54MMA    H0D  798  -0.174  -1.857   0.255
   54MMA    H0E  799  -0.022  -1.875   0.342
   55MMA    H00  800  -0.116  -1.829   0.616
   55MMA    C01  801  -0.051  -1.916   0.620
   55MMA    H02  802   0.050  -1.882   0.599
   55MMA    H03  803  -0.055  -1.956   0.721
   55MMA    O04  804  -0.098  -2.014   0.527
   55MMA    C05  805  -0.012  -2.089   0.454
   55MMA    O06  806   0.110  -2.074   0.464
   55MMA    C07  807  -0.078  -2.192   0.370
   55MMA    C08  808   0.002  -2.309   0.364
   55MMA    H09  809   0.094  -2.298   0.418
   55MMA    H0A  810   0.043  -2.322   0.265
   55MMA    C0B  811  -0.227  -2.200   0.416
   55MMA    H0C  812  -0.292  -2.266   0.359
   55MMA    H0D  813  -0.236  -2.227   0.521
   55MMA    H0E  814  -0.279  -2.104   0.419
   56MMA    H00  815  -0.384  -2.401   0.143
   56MMA    C01  816  -0.283  -2.441   0.131
   56MMA    H02  817  -0.289  -2.535   0.078
   56MMA    H03  818  -0.228  -2.371   0.069
   56MMA    O04  819  -0.221  -2.456   0.258
   56MMA    C05  820  -0.091  -2.485   0.266
   56MMA    O06  821  -0.028  -2.524   0.168
   56MMA    C07  822  -0.034  -2.465   0.401
   56MMA    C08  823   0.087  -2.527   0.430
   56MMA    H09  824   0.129  -2.495   0.524
   56MMA    H0A  825   0.152  -2.534   0.343
   56MMA    C0B  826  -0.126  -2.455   0.522
   56MMA    H0C  827  -0.098  -2.370   0.585
   56MMA    H0D  828  -0.232  -2.451   0.496
   56MMA    H0E  829  -0.117  -2.541   0.589
   57MMA    H00  830   0.210  -2.896   0.106
   57MMA    C01  831   0.208  -2.889   0.215
   57MMA    H02  832   0.136  -2.962   0.252
   57MMA    H03  833   0.306  -2.916   0.254
   57MMA    O04  834   0.167  -2.760   0.257
   57MMA    C05  835   0.212  -2.711   0.374
   57MMA    O06  836   0.332  -2.700   0.400
   57MMA    C07  837   0.102  -2.688   0.468
   57MMA    C08  838   0.137  -2.701   0.603
   57MMA    H09  839   0.226  -2.648   0.631
   57MMA    H0A  840   0.045  -2.687   0.659
   57MMA    C0B  841  -0.034  -2.748   0.421
   57MMA    H0C  842  -0.058  -2.723   0.318
   57MMA    H0D  843  -0.031  -2.856   0.415
   57MMA    H0E  844  -0.120  -2.723   0.483
   58MMA    H00  845  -0.216  -2.959   0.816
   58MMA    C01  846  -0.146  -2.879   0.840
   58MMA    H02  847  -0.187  -2.785   0.805
   58MMA    H03  848  -0.137  -2.876   0.949
   58MMA    O04  849  -0.022  -2.906   0.777
   58MMA    C05  850   0.084  -2.823   0.788
   58MMA    O06  851   0.092  -2.735   0.874
   58MMA    C07  852   0.183  -2.843   0.681
   58MMA    C08  853   0.317  -2.836   0.724
   58MMA    H09  854   0.327  -2.775   0.813
   58MMA    H0A  855   0.363  -2.803   0.632
   58MMA    C0B  856   0.142  -2.954   0.583
   58MMA    H0C  857   0.035  -2.969   0.571
   58MMA    H0D  858   0.183  -2.942   0.482
   58MMA    H0E  859   0.175  -3.051   0.621
   59MMA    H00  860   0.508  -2.942   0.347
   59MMA    C01  861   0.491  -3.033   0.406
   59MMA    H02  862   0.454  -3.111   0.340
   59MMA    H03  863   0.589  -3.062   0.443
   59MMA    O04  864   0.401  -3.002   0.512
   59MMA    C05  865   0.421  -3.053   0.637
   59MMA    O06  866   0.447  -3.171   0.647
   59MMA    C07  867   0.443  -2.952   0.745
   59MMA    C08  868   0.495  -3.014   0.871
   59MMA    H09  869   0.596  -3.045   0.849
   59MMA    H0A  870   0.419  -3.091   0.863
   59MMA    C0B  871   0.555  -2.875   0.660
   59MMA    H0C  872   0.538  -2.842   0.557
   59MMA    H0D  873   0.594  -2.776   0.684
   59MMA    H0E  874   0.642  -2.940   0.647
   60EH     H00  875   0.524  -3.276   1.094
   60EH     C01  876   0.506  -3.210   1.009
   60EH     H02  877   0.592  -3.223   0.944
   60EH     H03  878   0.418  -3.256   0.964
   60EH     C04  879   0.489  -3.064   1.048
   60EH     C05  880   0.582  -3.060   1.169
   60EH     H06  881   0.530  -3.118   1.244
   60EH     H07  882   0.669  -3.119   1.145
   60EH     C08  883   0.349  -3.036   1.068
   60EH     O09  884   0.284  -2.955   1.001
   60EH     O0A  885   0.294  -3.117   1.155
   60EH     C0B  886   0.155  -3.130   1.146
   60EH     H0C  887   0.122  -3.114   1.043
   60EH     H0D  888   0.107  -3.054   1.208
   60EH     C0E  889   0.114  -3.269   1.187
   60EH     H0F  890   0.154  -3.286   1.287
   60EH     C0G  891  -0.040  -3.275   1.193
   60EH     H0H  892  -0.072  -3.224   1.284
   60EH     H0I  893  -0.073  -3.379   1.204
   60EH     C0J  894  -0.111  -3.208   1.075
   60EH     H0K  895  -0.096  -3.100   1.071
   60EH     H0M  896  -0.075  -3.248   0.980
   60EH     H0N  897  -0.219  -3.221   1.081
   60EH     C0O  898   0.180  -3.370   1.091
   60EH     H0P  899   0.145  -3.359   0.989
   60EH     H0Q  900   0.286  -3.345   1.088
   60EH     C0R  901   0.180  -3.515   1.138
   60EH     H0S  902   0.158  -3.519   1.245
   60EH     H0T  903   0.281  -3.555   1.128
   60EH     C0U  904   0.085  -3.603   1.058
   60EH     H0V  905  -0.013  -3.554   1.051
   60EH     H0W  906   0.122  -3.613   0.956
   60EH     C0X  907   0.071  -3.741   1.121
   60EH     H0Y  908   0.003  -3.803   1.063
   60EH     H0Z  909   0.030  -3.732   1.222
   60EH     H10  910   0.167  -3.791   1.128
   61ST     H00  911   0.535  -2.868   1.449
   61ST     C01  912   0.540  -2.959   1.390
   61ST     H02  913   0.552  -3.039   1.463
   61ST     H03  914   0.440  -2.977   1.349
   61ST     C04  915   0.660  -2.946   1.295
   61ST     C05  916   0.719  -2.809   1.285
   61ST     H06  917   0.815  -2.810   1.333
   61ST     H07  918   0.651  -2.735   1.325
   61ST     C08  919   0.762  -3.025   1.369
   61ST     O09  920   0.800  -3.136   1.333
   61ST     O0A  921   0.812  -2.968   1.493
   61ST     C0B  922   0.756  -2.860   1.575
   61ST     H0C  923   0.746  -2.763   1.525
   61ST     H0D  924   0.656  -2.886   1.609
   61ST     C0E  925   0.830  -2.823   1.706
   61ST     H0F  926   0.768  -2.751   1.758
   61ST     H0G  927   0.922  -2.770   1.684
   61ST     C0H  928   0.860  -2.939   1.802
   61ST     H0I  929   0.855  -2.902   1.905
   61ST     H0J  930   0.963  -2.968   1.786
   61ST     C0K  931   0.768  -3.061   1.790
   61ST     H0M  932   0.681  -3.049   1.855
   61ST     H0N  933   0.724  -3.071   1.691
   61ST     C0O  934   0.841  -3.193   1.821
   61ST     H0P  935   0.775  -3.250   1.887
   61ST     H0Q  936   0.931  -3.174   1.879
   61ST     C0R  937   0.877  -3.281   1.699
   61ST     H0S  938   0.915  -3.377   1.734
   61ST     H0T  939   0.960  -3.234   1.646
   61ST     C0U  940   0.767  -3.307   1.593
   61ST     H0V  941   0.805  -3.374   1.516
   61ST     H0W  942   0.750  -3.212   1.542
   61ST     C0X  943   0.627  -3.350   1.638
   61ST     H0Y  944   0.586  -3.278   1.708
   61ST     H0Z  945   0.563  -3.344   1.551
   61ST     C10  946   0.620  -3.494   1.692
   61ST     H11  947   0.525  -3.538   1.664
   61ST     H12  948   0.697  -3.554   1.644
   61ST     C13  949   0.636  -3.499   1.844
   61ST     H14  950   0.646  -3.603   1.875
   61ST     H15  951   0.731  -3.454   1.871
   61ST     C16  952   0.515  -3.437   1.919
   61ST     H17  953   0.443  -3.400   1.846
   61ST     H18  954   0.460  -3.517   1.967
   61ST     C19  955   0.543  -3.319   2.015
   61ST     H1A  956   0.555  -3.230   1.953
   61ST     H1B  957   0.453  -3.298   2.073
   61ST     C1C  958   0.666  -3.324   2.110
   61ST     H1D  959   0.752  -3.373   2.066
   61ST     H1E  960   0.697  -3.221   2.123
   61ST     C1F  961   0.643  -3.379   2.252
   61ST     H1G  962   0.722  -3.337   2.314
   61ST     H1H  963   0.550  -3.341   2.294
   61ST     C1I  964   0.655  -3.532   2.265
   61ST     H1J  965   0.699  -3.558   2.361
   61ST     H1K  966   0.725  -3.570   2.190
   61ST     C1M  967   0.521  -3.606   2.250
   61ST     H1N  968   0.538  -3.712   2.233
   61ST     H1O  969   0.471  -3.569   2.160
   61ST     C1P  970   0.426  -3.587   2.369
   61ST     H1Q  971   0.444  -3.665   2.443
   61ST     H1R  972   0.445  -3.493   2.420
   61ST     C1S  973   0.279  -3.588   2.324
   61ST     H1T  974   0.212  -3.578   2.409
   61ST     H1U  975   0.254  -3.681   2.272
   61ST     H1V  976   0.259  -3.506   2.256
   62ST     H00  977   1.001  -2.785   1.263
   62ST     C01  978   0.960  -2.722   1.184
   62ST     H02  979   1.016  -2.629   1.185
   62ST     H03  980   0.991  -2.765   1.089
   62ST     C04  981   0.807  -2.695   1.187
   62ST     C05  982   0.767  -2.641   1.063
   62ST     H06  983   0.679  -2.580   1.077
   62ST     H07  984   0.848  -2.579   1.027
   62ST     C08  985   0.792  -2.582   1.286
   62ST     O09  986   0.703  -2.497   1.282
   62ST     O0A  987   0.896  -2.561   1.372
   62ST     C0B  988   0.931  -2.424   1.405
   62ST     H0C  989   1.010  -2.393   1.337
   62ST     H0D  990   0.851  -2.353   1.384
   62ST     C0E  991   0.976  -2.401   1.550
   62ST     H0F  992   0.999  -2.294   1.561
   62ST     H0G  993   1.071  -2.451   1.568
   62ST     C0H  994   0.874  -2.440   1.660
   62ST     H0I  995   0.902  -2.393   1.754
   62ST     H0J  996   0.884  -2.547   1.676
   62ST     C0K  997   0.727  -2.410   1.628
   62ST     H0M  998   0.697  -2.469   1.541
   62ST     H0N  999   0.664  -2.448   1.709
   62ST     C0O 1000   0.695  -2.261   1.606
   62ST     H0P 1001   0.785  -2.206   1.579
   62ST     H0Q 1002   0.661  -2.217   1.700
   62ST     C0R 1003   0.589  -2.238   1.496
   62ST     H0S 1004   0.492  -2.275   1.528
   62ST     H0T 1005   0.614  -2.299   1.409
   62ST     C0U 1006   0.582  -2.092   1.447
   62ST     H0V 1007   0.503  -2.083   1.372
   62ST     H0W 1008   0.675  -2.072   1.393
   62ST     C0X 1009   0.566  -1.984   1.555
   62ST     H0Y 1010   0.627  -2.003   1.643
   62ST     H0Z 1011   0.608  -1.892   1.514
   62ST     C10 1012   0.420  -1.953   1.595
   62ST     H11 1013   0.416  -1.857   1.645
   62ST     H12 1014   0.360  -1.942   1.505
   62ST     C13 1015   0.355  -2.059   1.686
   62ST     H14 1016   0.248  -2.036   1.686
   62ST     H15 1017   0.360  -2.157   1.638
   62ST     C16 1018   0.405  -2.058   1.832
   62ST     H17 1019   0.491  -1.991   1.840
   62ST     H18 1020   0.330  -2.009   1.894
   62ST     C19 1021   0.446  -2.192   1.899
   62ST     H1A 1022   0.555  -2.196   1.897
   62ST     H1B 1023   0.424  -2.186   2.006
   62ST     C1C 1024   0.396  -2.328   1.845
   62ST     H1D 1025   0.400  -2.336   1.737
   62ST     H1E 1026   0.470  -2.400   1.878
   62ST     C1F 1027   0.262  -2.380   1.901
   62ST     H1G 1028   0.267  -2.489   1.894
   62ST     H1H 1029   0.254  -2.360   2.008
   62ST     C1I 1030   0.134  -2.338   1.825
   62ST     H1J 1031   0.059  -2.416   1.839
   62ST     H1K 1032   0.155  -2.337   1.718
   62ST     C1M 1033   0.073  -2.204   1.868
   62ST     H1N 1034  -0.013  -2.184   1.805
   62ST     H1O 1035   0.142  -2.123   1.847
   62ST     C1P 1036   0.029  -2.196   2.016
   62ST     H1Q 1037  -0.078  -2.174   2.020
   62ST     H1R 1038   0.041  -2.293   2.066
   62ST     C1S 1039   0.105  -2.088   2.093
   62ST     H1T 1040   0.070  -2.081   2.196
   62ST     H1U 1041   0.093  -1.990   2.047
   62ST     H1V 1042   0.212  -2.110   2.096
   63ST     H00 1043   0.523  -2.765   0.874
   63ST     C01 1044   0.575  -2.669   0.883
   63ST     H02 1045   0.545  -2.615   0.794
   63ST     H03 1046   0.516  -2.616   0.959
   63ST     C04 1047   0.727  -2.686   0.910
   63ST     C05 1048   0.791  -2.819   0.859
   63ST     H06 1049   0.703  -2.877   0.832
   63ST     H07 1050   0.851  -2.787   0.775
   63ST     C08 1051   0.736  -2.534   0.875
   63ST     O09 1052   0.816  -2.497   0.789
   63ST     O0A 1053   0.643  -2.415   0.945
   63ST     C0B 1054   0.490  -2.368   0.954
   63ST     H0C 1055   0.429  -2.440   1.008
   63ST     H0D 1056   0.451  -2.375   0.852
   63ST     C0E 1057   0.428  -2.220   1.014
   63ST     H0F 1058   0.496  -2.187   1.093
   63ST     H0G 1059   0.441  -2.145   0.936
   63ST     C0H 1060   0.274  -2.185   1.079
   63ST     H0I 1061   0.278  -2.216   1.184
   63ST     H0J 1062   0.201  -2.254   1.036
   63ST     C0K 1063   0.197  -2.036   1.084
   63ST     H0M 1064   0.272  -1.957   1.092
   63ST     H0N 1065   0.151  -2.021   0.986
   63ST     C0O 1066   0.077  -2.001   1.190
   63ST     H0P 1067   0.118  -2.033   1.287
   63ST     H0Q 1068  -0.007  -2.067   1.174
   63ST     C0R 1069   0.011  -1.856   1.232
   63ST     H0S 1070   0.077  -1.787   1.285
   63ST     H0T 1071  -0.049  -1.885   1.318
   63ST     C0U 1072  -0.095  -1.767   1.155
   63ST     H0V 1073  -0.160  -1.723   1.230
   63ST     H0W 1074  -0.163  -1.831   1.098
   63ST     C0X 1075  -0.057  -1.643   1.065
   63ST     H0Y 1076   0.016  -1.670   0.988
   63ST     H0Z 1077  -0.147  -1.622   1.007
   63ST     C10 1078  -0.025  -1.503   1.127
   63ST     H11 1079  -0.033  -1.430   1.047
   63ST     H12 1080  -0.102  -1.472   1.198
   63ST     C13 1081   0.113  -1.478   1.191
   63ST     H14 1082   0.124  -1.371   1.207
   63ST     H15 1083   0.116  -1.521   1.291
   63ST     C16 1084   0.234  -1.525   1.107
   63ST     H17 1085   0.215  -1.506   1.001
   63ST     H18 1086   0.322  -1.465   1.131
   63ST     C19 1087   0.268  -1.672   1.131
   63ST     H1A 1088   0.179  -1.732   1.112
   63ST     H1B 1089   0.332  -1.714   1.052
   63ST     C1C 1090   0.326  -1.700   1.271
   63ST     H1D 1091   0.312  -1.614   1.337
   63ST     H1E 1092   0.272  -1.782   1.319
   63ST     C1F 1093   0.471  -1.746   1.275
   63ST     H1G 1094   0.496  -1.754   1.380
   63ST     H1H 1095   0.476  -1.848   1.237
   63ST     C1I 1096   0.573  -1.651   1.209
   63ST     H1J 1097   0.670  -1.672   1.255
   63ST     H1K 1098   0.548  -1.549   1.237
   63ST     C1M 1099   0.589  -1.661   1.056
   63ST     H1N 1100   0.670  -1.594   1.026
   63ST     H1O 1101   0.503  -1.617   1.005
   63ST     C1P 1102   0.622  -1.802   1.002
   63ST     H1Q 1103   0.728  -1.807   0.979
   63ST     H1R 1104   0.607  -1.879   1.078
   63ST     C1S 1105   0.540  -1.842   0.878
   63ST     H1T 1106   0.572  -1.939   0.841
   63ST     H1U 1107   0.554  -1.770   0.797
   63ST     H1V 1108   0.434  -1.848   0.900
   64ST     H00 1109   0.996  -2.831   0.901
   64ST     C01 1110   0.981  -2.934   0.866
   64ST     H02 1111   0.987  -2.935   0.757
   64ST     H03 1112   1.071  -2.985   0.901
   64ST     C04 1113   0.850  -2.999   0.914
   64ST     C05 1114   0.904  -3.155   0.890
   64ST     H06 1115   0.949  -3.158   0.988
   64ST     H07 1116   0.968  -3.158   0.803
   64ST     C08 1117   0.789  -2.947   1.038
   64ST     O09 1118   0.867  -2.972   1.128
   64ST     O0A 1119   0.640  -2.863   1.039
   64ST     C0B 1120   0.514  -2.793   1.124
   64ST     H0C 1121   0.437  -2.794   1.047
   64ST     H0D 1122   0.456  -2.858   1.191
   64ST     C0E 1123   0.460  -2.653   1.195
   64ST     H0F 1124   0.359  -2.644   1.158
   64ST     H0G 1125   0.505  -2.561   1.157
   64ST     C0H 1126   0.436  -2.613   1.349
   64ST     H0I 1127   0.385  -2.517   1.349
   64ST     H0J 1128   0.527  -2.588   1.402
   64ST     C0K 1129   0.358  -2.704   1.447
   64ST     H0M 1130   0.344  -2.798   1.394
   64ST     H0N 1131   0.420  -2.723   1.535
   64ST     C0O 1132   0.223  -2.660   1.507
   64ST     H0P 1133   0.177  -2.583   1.446
   64ST     H0Q 1134   0.239  -2.613   1.604
   64ST     C0R 1135   0.127  -2.780   1.525
   64ST     H0S 1136   0.029  -2.745   1.556
   64ST     H0T 1137   0.161  -2.843   1.608
   64ST     C0U 1138   0.110  -2.871   1.402
   64ST     H0V 1139   0.020  -2.932   1.412
   64ST     H0W 1140   0.190  -2.945   1.401
   64ST     C0X 1141   0.113  -2.799   1.265
   64ST     H0Y 1142   0.141  -2.693   1.270
   64ST     H0Z 1143   0.194  -2.841   1.206
   64ST     C10 1144  -0.015  -2.811   1.185
   64ST     H11 1145   0.015  -2.811   1.080
   64ST     H12 1146  -0.063  -2.908   1.201
   64ST     C13 1147  -0.118  -2.700   1.208
   64ST     H14 1148  -0.203  -2.726   1.146
   64ST     H15 1149  -0.155  -2.705   1.310
   64ST     C16 1150  -0.073  -2.558   1.166
   64ST     H17 1151   0.002  -2.565   1.088
   64ST     H18 1152  -0.157  -2.509   1.116
   64ST     C19 1153  -0.021  -2.462   1.276
   64ST     H1A 1154   0.087  -2.474   1.281
   64ST     H1B 1155  -0.034  -2.359   1.242
   64ST     C1C 1156  -0.079  -2.474   1.419
   64ST     H1D 1157  -0.072  -2.576   1.457
   64ST     H1E 1158  -0.010  -2.419   1.483
   64ST     C1F 1159  -0.219  -2.415   1.445
   64ST     H1G 1160  -0.219  -2.387   1.550
   64ST     H1H 1161  -0.232  -2.321   1.391
   64ST     C1I 1162  -0.339  -2.510   1.427
   64ST     H1J 1163  -0.416  -2.481   1.499
   64ST     H1K 1164  -0.311  -2.611   1.457
   64ST     C1M 1165  -0.406  -2.513   1.288
   64ST     H1N 1166  -0.493  -2.579   1.295
   64ST     H1O 1167  -0.342  -2.563   1.216
   64ST     C1P 1168  -0.452  -2.377   1.234
   64ST     H1Q 1169  -0.557  -2.384   1.207
   64ST     H1R 1170  -0.447  -2.300   1.311
   64ST     C1S 1171  -0.373  -2.331   1.110
   64ST     H1T 1172  -0.414  -2.240   1.069
   64ST     H1U 1173  -0.375  -2.407   1.032
   64ST     H1V 1174  -0.268  -2.311   1.135
   65LA     H00 1175   0.774  -3.299   1.068
   65LA     C01 1176   0.866  -3.357   1.060
   65LA     H02 1177   0.941  -3.313   1.126
   65LA     H03 1178   0.843  -3.455   1.101
   65LA     C04 1179   0.910  -3.369   0.913
   65LA     C05 1180   1.014  -3.499   0.907
   65LA     H06 1181   1.041  -3.518   1.010
   65LA     H07 1182   0.959  -3.542   0.824
   65LA     C08 1183   0.796  -3.374   0.819
   65LA     O09 1184   0.758  -3.275   0.757
   65LA     O0A 1185   0.721  -3.491   0.822
   65LA     C0B 1186   0.576  -3.492   0.825
   65LA     H0C 1187   0.546  -3.426   0.907
   65LA     H0D 1188   0.546  -3.589   0.865
   65LA     C0E 1189   0.485  -3.465   0.701
   65LA     H0F 1190   0.532  -3.387   0.641
   65LA     H0G 1191   0.485  -3.552   0.636
   65LA     C0H 1192   0.336  -3.427   0.738
   65LA     H0I 1193   0.294  -3.500   0.807
   65LA     H0J 1194   0.337  -3.333   0.793
   65LA     C0K 1195   0.234  -3.402   0.622
   65LA     H0M 1196   0.281  -3.336   0.549
   65LA     H0N 1197   0.215  -3.495   0.568
   65LA     C0O 1198   0.098  -3.334   0.661
   65LA     H0P 1199   0.116  -3.253   0.732
   65LA     H0Q 1200   0.058  -3.286   0.572
   65LA     C0R 1201  -0.011  -3.429   0.717
   65LA     H0S 1202  -0.019  -3.517   0.653
   65LA     H0T 1203   0.023  -3.465   0.814
   65LA     C0U 1204  -0.154  -3.367   0.731
   65LA     H0V 1205  -0.147  -3.261   0.754
   65LA     H0W 1206  -0.204  -3.372   0.634
   65LA     C0X 1207  -0.238  -3.438   0.840
   65LA     H0Y 1208  -0.189  -3.531   0.869
   65LA     H0Z 1209  -0.237  -3.378   0.931
   65LA     C10 1210  -0.387  -3.464   0.810
   65LA     H11 1211  -0.415  -3.436   0.709
   65LA     H12 1212  -0.448  -3.400   0.875
   65LA     C13 1213  -0.426  -3.610   0.839
   65LA     H14 1214  -0.533  -3.618   0.859
   65LA     H15 1215  -0.378  -3.643   0.932
   65LA     C16 1216  -0.387  -3.705   0.725
   65LA     H17 1217  -0.383  -3.807   0.763
   65LA     H18 1218  -0.287  -3.682   0.689
   65LA     C19 1219  -0.488  -3.700   0.609
   65LA     H1A 1220  -0.587  -3.730   0.642
   65LA     H1B 1221  -0.459  -3.768   0.529
   65LA     H1C 1222  -0.495  -3.600   0.566
   66EH     H00 1223   1.141  -3.602   0.718
   66EH     C01 1224   1.081  -3.691   0.739
   66EH     H02 1225   1.131  -3.775   0.691
   66EH     H03 1226   0.987  -3.685   0.683
   66EH     C04 1227   1.061  -3.711   0.890
   66EH     C05 1228   1.165  -3.836   0.925
   66EH     H06 1229   1.081  -3.901   0.908
   66EH     H07 1230   1.251  -3.822   0.860
   66EH     C08 1231   0.923  -3.744   0.930
   66EH     O09 1232   0.871  -3.698   1.031
   66EH     O0A 1233   0.858  -3.827   0.843
   66EH     C0B 1234   0.715  -3.840   0.853
   66EH     H0C 1235   0.675  -3.749   0.806
   66EH     H0D 1236   0.684  -3.835   0.957
   66EH     C0E 1237   0.653  -3.965   0.784
   66EH     H0F 1238   0.735  -4.018   0.736
   66EH     C0G 1239   0.591  -4.061   0.889
   66EH     H0H 1240   0.659  -4.070   0.974
   66EH     H0I 1241   0.584  -4.161   0.848
   66EH     C0J 1242   0.451  -4.019   0.941
   66EH     H0K 1243   0.419  -4.083   1.024
   66EH     H0M 1244   0.375  -4.029   0.863
   66EH     H0N 1245   0.450  -3.916   0.976
   66EH     C0O 1246   0.551  -3.925   0.674
   66EH     H0P 1247   0.472  -3.866   0.720
   66EH     H0Q 1248   0.599  -3.857   0.604
   66EH     C0R 1249   0.488  -4.040   0.592
   66EH     H0S 1250   0.491  -4.135   0.646
   66EH     H0T 1251   0.548  -4.057   0.503
   66EH     C0U 1252   0.341  -4.013   0.552
   66EH     H0V 1253   0.276  -4.041   0.635
   66EH     H0W 1254   0.325  -3.906   0.537
   66EH     C0X 1255   0.297  -4.087   0.425
   66EH     H0Y 1256   0.191  -4.070   0.406
   66EH     H0Z 1257   0.312  -4.194   0.433
   66EH     H10 1258   0.351  -4.051   0.338
   67LA     H00 1259   1.120  -3.957   1.112
   67LA     C01 1260   1.115  -4.050   1.055
   67LA     H02 1261   1.133  -4.125   1.131
   67LA     H03 1262   1.011  -4.065   1.026
   67LA     C04 1263   1.215  -4.044   0.938
   67LA     C05 1264   1.326  -4.158   0.976
   67LA     H06 1265   1.381  -4.119   1.060
   67LA     H07 1266   1.256  -4.230   1.016
   67LA     C08 1267   1.160  -4.078   0.806
   67LA     O09 1268   1.212  -4.041   0.701
   67LA     O0A 1269   1.042  -4.145   0.808
   67LA     C0B 1270   1.038  -4.287   0.795
   67LA     H0C 1271   0.940  -4.325   0.826
   67LA     H0D 1272   1.101  -4.321   0.877
   67LA     C0E 1273   1.079  -4.350   0.659
   67LA     H0F 1274   1.162  -4.297   0.612
   67LA     H0G 1275   1.118  -4.450   0.678
   67LA     C0H 1276   0.963  -4.371   0.560
   67LA     H0I 1277   0.872  -4.381   0.619
   67LA     H0J 1278   0.949  -4.281   0.500
   67LA     C0K 1279   0.979  -4.496   0.469
   67LA     H0M 1280   1.044  -4.469   0.386
   67LA     H0N 1281   1.032  -4.577   0.520
   67LA     C0O 1282   0.846  -4.552   0.415
   67LA     H0P 1283   0.780  -4.471   0.382
   67LA     H0Q 1284   0.870  -4.608   0.324
   67LA     C0R 1285   0.772  -4.649   0.510
   67LA     H0S 1286   0.719  -4.723   0.449
   67LA     H0T 1287   0.845  -4.707   0.566
   67LA     C0U 1288   0.670  -4.584   0.605
   67LA     H0V 1289   0.716  -4.504   0.662
   67LA     H0W 1290   0.589  -4.537   0.548
   67LA     C0X 1291   0.614  -4.683   0.708
   67LA     H0Y 1292   0.695  -4.747   0.744
   67LA     H0Z 1293   0.581  -4.627   0.796
   67LA     C10 1294   0.496  -4.766   0.657
   67LA     H11 1295   0.496  -4.770   0.548
   67LA     H12 1296   0.403  -4.714   0.683
   67LA     C13 1297   0.493  -4.908   0.716
   67LA     H14 1298   0.390  -4.944   0.721
   67LA     H15 1299   0.528  -4.905   0.819
   67LA     C16 1300   0.577  -5.008   0.634
   67LA     H17 1301   0.595  -5.097   0.695
   67LA     H18 1302   0.675  -4.966   0.613
   67LA     C19 1303   0.508  -5.052   0.504
   67LA     H1A 1304   0.410  -5.095   0.524
   67LA     H1B 1305   0.567  -5.126   0.451
   67LA     H1C 1306   0.493  -4.968   0.436
   68ST     H00 1307   1.495  -4.179   0.808
   68ST     C01 1308   1.540  -4.246   0.882
   68ST     H02 1309   1.618  -4.300   0.828
   68ST     H03 1310   1.586  -4.181   0.957
   68ST     C04 1311   1.431  -4.339   0.936
   68ST     C05 1312   1.506  -4.474   0.995
   68ST     H06 1313   1.612  -4.450   0.993
   68ST     H07 1314   1.488  -4.546   0.916
   68ST     C08 1315   1.355  -4.392   0.824
   68ST     O09 1316   1.383  -4.372   0.706
   68ST     O0A 1317   1.257  -4.473   0.859
   68ST     C0B 1318   1.238  -4.533   0.985
   68ST     H0C 1319   1.136  -4.570   0.977
   68ST     H0D 1320   1.291  -4.628   0.981
   68ST     C0E 1321   1.257  -4.448   1.119
   68ST     H0F 1322   1.232  -4.537   1.177
   68ST     H0G 1323   1.167  -4.386   1.126
   68ST     C0H 1324   1.382  -4.392   1.214
   68ST     H0I 1325   1.323  -4.317   1.268
   68ST     H0J 1326   1.398  -4.479   1.276
   68ST     C0K 1327   1.533  -4.320   1.211
   68ST     H0M 1328   1.532  -4.226   1.156
   68ST     H0N 1329   1.530  -4.284   1.314
   68ST     C0O 1330   1.689  -4.381   1.210
   68ST     H0P 1331   1.733  -4.313   1.284
   68ST     H0Q 1332   1.705  -4.471   1.269
   68ST     C0R 1333   1.805  -4.372   1.092
   68ST     H0S 1334   1.876  -4.303   1.137
   68ST     H0T 1335   1.771  -4.314   1.006
   68ST     C0U 1336   1.909  -4.489   1.042
   68ST     H0V 1337   1.938  -4.555   1.125
   68ST     H0W 1338   2.004  -4.438   1.026
   68ST     C0X 1339   1.894  -4.578   0.907
   68ST     H0Y 1340   1.800  -4.559   0.857
   68ST     H0Z 1341   1.962  -4.530   0.836
   68ST     C10 1342   1.936  -4.734   0.899
   68ST     H11 1343   2.012  -4.742   0.822
   68ST     H12 1344   1.987  -4.765   0.990
   68ST     C13 1345   1.828  -4.846   0.859
   68ST     H14 1346   1.774  -4.878   0.949
   68ST     H15 1347   1.754  -4.803   0.792
   68ST     C16 1348   1.872  -4.984   0.800
   68ST     H17 1349   1.955  -4.970   0.731
   68ST     H18 1350   1.911  -5.048   0.879
   68ST     C19 1351   1.760  -5.062   0.722
   68ST     H1A 1352   1.735  -5.008   0.631
   68ST     H1B 1353   1.800  -5.158   0.689
   68ST     C1C 1354   1.629  -5.092   0.799
   68ST     H1D 1355   1.652  -5.155   0.885
   68ST     H1E 1356   1.592  -4.997   0.838
   68ST     C1F 1357   1.515  -5.154   0.714
   68ST     H1G 1358   1.451  -5.072   0.678
   68ST     H1H 1359   1.555  -5.200   0.624
   68ST     C1I 1360   1.423  -5.257   0.785
   68ST     H1J 1361   1.342  -5.282   0.717
   68ST     H1K 1362   1.374  -5.214   0.873
   68ST     C1M 1363   1.496  -5.387   0.824
   68ST     H1N 1364   1.571  -5.366   0.900
   68ST     H1O 1365   1.550  -5.424   0.737
   68ST     C1P 1366   1.402  -5.498   0.875
   68ST     H1Q 1367   1.349  -5.464   0.964
   68ST     H1R 1368   1.326  -5.519   0.800
   68ST     C1S 1369   1.479  -5.626   0.907
   68ST     H1T 1370   1.412  -5.706   0.940
   68ST     H1U 1371   1.552  -5.610   0.986
   68ST     H1V 1372   1.533  -5.663   0.820
   69EH     H00 1373   1.736  -4.609   1.124
   69EH     C01 1374   1.669  -4.680   1.074
   69EH     H02 1375   1.678  -4.677   0.965
   69EH     H03 1376   1.701  -4.777   1.110
   69EH     C04 1377   1.532  -4.647   1.113
   69EH     C05 1378   1.541  -4.679   1.262
   69EH     H06 1379   1.456  -4.741   1.284
   69EH     H07 1380   1.552  -4.584   1.314
   69EH     C08 1381   1.473  -4.767   1.042
   69EH     O09 1382   1.459  -4.777   0.920
   69EH     O0A 1383   1.460  -4.881   1.122
   69EH     C0B 1384   1.481  -5.018   1.079
   69EH     H0C 1385   1.589  -5.032   1.064
   69EH     H0D 1386   1.430  -5.039   0.985
   69EH     C0E 1387   1.434  -5.113   1.192
   69EH     H0F 1388   1.477  -5.047   1.268
   69EH     C0G 1389   1.278  -5.110   1.204
   69EH     H0H 1390   1.236  -5.069   1.113
   69EH     H0I 1391   1.246  -5.038   1.279
   69EH     C0J 1392   1.205  -5.243   1.233
   69EH     H0K 1393   1.218  -5.315   1.152
   69EH     H0M 1394   1.236  -5.291   1.326
   69EH     H0N 1395   1.097  -5.227   1.242
   69EH     C0O 1396   1.493  -5.258   1.221
   69EH     H0P 1397   1.446  -5.327   1.151
   69EH     H0Q 1398   1.456  -5.290   1.319
   69EH     C0R 1399   1.644  -5.299   1.222
   69EH     H0S 1400   1.682  -5.291   1.120
   69EH     H0T 1401   1.645  -5.407   1.242
   69EH     C0U 1402   1.747  -5.238   1.319
   69EH     H0V 1403   1.845  -5.256   1.275
   69EH     H0W 1404   1.740  -5.129   1.320
   69EH     C0X 1405   1.758  -5.297   1.462
   69EH     H0Y 1406   1.672  -5.275   1.526
   69EH     H0Z 1407   1.845  -5.256   1.513
   69EH     H10 1408   1.772  -5.405   1.461
   70LA     H00 1409   1.723  -4.565   1.463
   70LA     C01 1410   1.651  -4.642   1.494
   70LA     H02 1411   1.559  -4.586   1.511
   70LA     H03 1412   1.687  -4.671   1.592
   70LA     C04 1413   1.641  -4.765   1.402
   70LA     C05 1414   1.616  -4.889   1.484
   70LA     H06 1415   1.677  -4.882   1.573
   70LA     H07 1416   1.661  -4.970   1.428
   70LA     C08 1417   1.789  -4.769   1.373
   70LA     O09 1418   1.850  -4.696   1.297
   70LA     O0A 1419   1.863  -4.836   1.469
   70LA     C0B 1420   1.951  -4.769   1.563
   70LA     H0C 1421   1.902  -4.681   1.605
   70LA     H0D 1422   1.964  -4.834   1.650
   70LA     C0E 1423   2.089  -4.724   1.511
   70LA     H0F 1424   2.072  -4.646   1.436
   70LA     H0G 1425   2.138  -4.669   1.591
   70LA     C0H 1426   2.185  -4.830   1.448
   70LA     H0I 1427   2.224  -4.837   1.549
   70LA     H0J 1428   2.093  -4.856   1.394
   70LA     C0K 1429   2.196  -4.985   1.462
   70LA     H0M 1430   2.173  -5.032   1.366
   70LA     H0N 1431   2.301  -5.013   1.477
   70LA     C0O 1432   2.111  -5.056   1.570
   70LA     H0P 1433   2.006  -5.034   1.556
   70LA     H0Q 1434   2.119  -5.164   1.552
   70LA     C0R 1435   2.156  -5.031   1.715
   70LA     H0S 1436   2.259  -5.063   1.729
   70LA     H0T 1437   2.157  -4.925   1.739
   70LA     C0U 1438   2.064  -5.102   1.816
   70LA     H0V 1439   1.995  -5.028   1.857
   70LA     H0W 1440   2.001  -5.176   1.767
   70LA     C0X 1441   2.139  -5.169   1.932
   70LA     H0Y 1442   2.214  -5.103   1.975
   70LA     H0Z 1443   2.066  -5.183   2.012
   70LA     C10 1444   2.197  -5.308   1.899
   70LA     H11 1445   2.132  -5.362   1.829
   70LA     H12 1446   2.191  -5.367   1.991
   70LA     C13 1447   2.345  -5.312   1.855
   70LA     H14 1448   2.393  -5.396   1.905
   70LA     H15 1449   2.398  -5.224   1.893
   70LA     C16 1450   2.374  -5.327   1.704
   70LA     H17 1451   2.482  -5.333   1.691
   70LA     H18 1452   2.343  -5.239   1.648
   70LA     C19 1453   2.311  -5.452   1.640
   70LA     H1A 1454   2.333  -5.542   1.696
   70LA     H1B 1455   2.348  -5.465   1.538
   70LA     H1C 1456   2.202  -5.442   1.632
   71LA     H00 1457   1.365  -5.034   1.443
   71LA     C01 1458   1.451  -5.073   1.498
   71LA     H02 1459   1.534  -5.114   1.441
   71LA     H03 1460   1.416  -5.172   1.528
   71LA     C04 1461   1.503  -4.969   1.598
   71LA     C05 1462   1.428  -4.866   1.639
   71LA     H06 1463   1.495  -4.791   1.600
   71LA     H07 1464   1.333  -4.865   1.588
   71LA     C08 1465   1.495  -5.074   1.710
   71LA     O09 1466   1.384  -5.117   1.741
   71LA     O0A 1467   1.595  -5.125   1.788
   71LA     C0B 1468   1.567  -5.253   1.861
   71LA     H0C 1469   1.665  -5.284   1.899
   71LA     H0D 1470   1.543  -5.326   1.784
   71LA     C0E 1471   1.467  -5.285   1.984
   71LA     H0F 1472   1.488  -5.389   2.009
   71LA     H0G 1473   1.499  -5.237   2.075
   71LA     C0H 1474   1.309  -5.286   1.971
   71LA     H0I 1475   1.270  -5.188   1.946
   71LA     H0J 1476   1.282  -5.348   1.886
   71LA     C0K 1477   1.226  -5.342   2.094
   71LA     H0M 1478   1.176  -5.433   2.060
   71LA     H0N 1479   1.290  -5.376   2.175
   71LA     C0O 1480   1.111  -5.255   2.153
   71LA     H0P 1481   1.047  -5.215   2.074
   71LA     H0Q 1482   1.044  -5.321   2.210
   71LA     C0R 1483   1.151  -5.144   2.251
   71LA     H0S 1484   1.062  -5.106   2.300
   71LA     H0T 1485   1.212  -5.183   2.332
   71LA     C0U 1486   1.218  -5.024   2.182
   71LA     H0V 1487   1.191  -5.027   2.076
   71LA     H0W 1488   1.173  -4.931   2.216
   71LA     C0X 1489   1.371  -5.023   2.199
   71LA     H0Y 1490   1.405  -5.094   2.274
   71LA     H0Z 1491   1.411  -5.060   2.104
   71LA     C10 1492   1.435  -4.886   2.222
   71LA     H11 1493   1.365  -4.805   2.207
   71LA     H12 1494   1.514  -4.872   2.148
   71LA     C13 1495   1.509  -4.872   2.353
   71LA     H14 1496   1.556  -4.774   2.350
   71LA     H15 1497   1.593  -4.943   2.355
   71LA     C16 1498   1.421  -4.888   2.477
   71LA     H17 1499   1.480  -4.861   2.564
   71LA     H18 1500   1.395  -4.993   2.490
   71LA     C19 1501   1.293  -4.804   2.474
   71LA     H1A 1502   1.313  -4.700   2.446
   71LA     H1B 1503   1.243  -4.804   2.571
   71LA     H1C 1504   1.221  -4.843   2.402
   72EH     H00 1505   1.399  -4.809   1.988
   72EH     C01 1506   1.405  -4.885   1.910
   72EH     H02 1507   1.491  -4.950   1.928
   72EH     H03 1508   1.313  -4.942   1.927
   72EH     C04 1509   1.404  -4.801   1.786
   72EH     C05 1510   1.512  -4.705   1.781
   72EH     H06 1511   1.490  -4.635   1.701
   72EH     H07 1512   1.602  -4.761   1.800
   72EH     C08 1513   1.256  -4.806   1.743
   72EH     O09 1514   1.186  -4.715   1.714
   72EH     O0A 1515   1.189  -4.934   1.737
   72EH     C0B 1516   1.091  -4.983   1.635
   72EH     H0C 1517   1.073  -5.087   1.663
   72EH     H0D 1518   1.147  -4.993   1.542
   72EH     C0E 1519   0.947  -4.924   1.598
   72EH     H0F 1520   0.952  -4.820   1.632
   72EH     C0G 1521   0.915  -4.925   1.444
   72EH     H0H 1522   0.985  -4.988   1.390
   72EH     H0I 1523   0.930  -4.820   1.419
   72EH     C0J 1524   0.776  -4.942   1.376
   72EH     H0K 1525   0.788  -4.948   1.268
   72EH     H0M 1526   0.712  -4.855   1.388
   72EH     H0N 1527   0.719  -5.032   1.403
   72EH     C0O 1528   0.824  -4.981   1.671
   72EH     H0P 1529   0.768  -5.051   1.609
   72EH     H0Q 1530   0.855  -5.041   1.756
   72EH     C0R 1531   0.728  -4.871   1.722
   72EH     H0S 1532   0.773  -4.825   1.810
   72EH     H0T 1533   0.639  -4.925   1.754
   72EH     C0U 1534   0.675  -4.760   1.628
   72EH     H0V 1535   0.756  -4.714   1.571
   72EH     H0W 1536   0.603  -4.802   1.558
   72EH     C0X 1537   0.602  -4.650   1.707
   72EH     H0Y 1538   0.572  -4.568   1.641
   72EH     H0Z 1539   0.665  -4.608   1.785
   72EH     H10 1540   0.512  -4.689   1.753
   73EH     H00 1541   1.741  -4.502   1.741
   73EH     C01 1542   1.639  -4.478   1.770
   73EH     H02 1543   1.639  -4.378   1.814
   73EH     H03 1544   1.581  -4.458   1.680
   73EH     C04 1545   1.580  -4.574   1.875
   73EH     C05 1546   1.692  -4.613   1.970
   73EH     H06 1547   1.770  -4.660   1.912
   73EH     H07 1548   1.635  -4.663   2.046
   73EH     C08 1549   1.433  -4.539   1.896
   73EH     O09 1550   1.369  -4.569   1.996
   73EH     O0A 1551   1.366  -4.475   1.778
   73EH     C0B 1552   1.220  -4.459   1.737
   73EH     H0C 1553   1.195  -4.355   1.754
   73EH     H0D 1554   1.152  -4.510   1.806
   73EH     C0E 1555   1.176  -4.475   1.578
   73EH     H0F 1556   1.152  -4.372   1.551
   73EH     C0G 1557   1.301  -4.505   1.507
   73EH     H0H 1558   1.393  -4.478   1.559
   73EH     H0I 1559   1.295  -4.427   1.430
   73EH     C0J 1560   1.304  -4.645   1.451
   73EH     H0K 1561   1.399  -4.695   1.468
   73EH     H0M 1562   1.297  -4.637   1.343
   73EH     H0N 1563   1.229  -4.716   1.485
   73EH     C0O 1564   1.050  -4.555   1.505
   73EH     H0P 1565   1.024  -4.646   1.560
   73EH     H0Q 1566   0.963  -4.492   1.523
   73EH     C0R 1567   1.037  -4.592   1.344
   73EH     H0S 1568   1.069  -4.503   1.289
   73EH     H0T 1569   0.930  -4.592   1.324
   73EH     C0U 1570   1.087  -4.728   1.268
   73EH     H0V 1571   1.183  -4.726   1.216
   73EH     H0W 1572   1.111  -4.809   1.336
   73EH     C0X 1573   1.003  -4.786   1.150
   73EH     H0Y 1574   0.985  -4.893   1.163
   73EH     H0Z 1575   1.057  -4.781   1.056
   73EH     H10 1576   0.906  -4.738   1.135
   74LA     H00 1577   1.797  -4.364   1.956
   74LA     C01 1578   1.770  -4.396   2.057
   74LA     H02 1579   1.810  -4.319   2.123
   74LA     H03 1580   1.661  -4.394   2.065
   74LA     C04 1581   1.826  -4.535   2.083
   74LA     C05 1582   1.978  -4.535   2.099
   74LA     H06 1583   2.020  -4.464   2.029
   74LA     H07 1584   2.014  -4.636   2.100
   74LA     C08 1585   1.771  -4.636   2.174
   74LA     O09 1586   1.799  -4.755   2.163
   74LA     O0A 1587   1.699  -4.592   2.278
   74LA     C0B 1588   1.720  -4.466   2.339
   74LA     H0C 1589   1.821  -4.430   2.320
   74LA     H0D 1590   1.653  -4.391   2.296
   74LA     C0E 1591   1.702  -4.478   2.490
   74LA     H0F 1592   1.779  -4.546   2.527
   74LA     H0G 1593   1.723  -4.381   2.536
   74LA     C0H 1594   1.565  -4.530   2.535
   74LA     H0I 1595   1.549  -4.631   2.496
   74LA     H0J 1596   1.569  -4.544   2.643
   74LA     C0K 1597   1.444  -4.441   2.501
   74LA     H0M 1598   1.360  -4.478   2.560
   74LA     H0N 1599   1.462  -4.339   2.537
   74LA     C0O 1600   1.400  -4.440   2.354
   74LA     H0P 1601   1.460  -4.510   2.295
   74LA     H0Q 1602   1.300  -4.482   2.346
   74LA     C0R 1603   1.400  -4.300   2.291
   74LA     H0S 1604   1.324  -4.238   2.339
   74LA     H0T 1605   1.495  -4.248   2.306
   74LA     C0U 1606   1.372  -4.311   2.141
   74LA     H0V 1607   1.453  -4.369   2.096
   74LA     H0W 1608   1.283  -4.373   2.130
   74LA     C0X 1609   1.359  -4.180   2.061
   74LA     H0Y 1610   1.354  -4.093   2.126
   74LA     H0Z 1611   1.449  -4.169   2.001
   74LA     C10 1612   1.238  -4.185   1.966
   74LA     H11 1613   1.218  -4.290   1.942
   74LA     H12 1614   1.263  -4.136   1.872
   74LA     C13 1615   1.109  -4.123   2.022
   74LA     H14 1616   1.031  -4.127   1.945
   74LA     H15 1617   1.127  -4.017   2.040
   74LA     C16 1618   1.056  -4.190   2.150
   74LA     H17 1619   0.980  -4.125   2.194
   74LA     H18 1620   1.135  -4.194   2.224
   74LA     C19 1621   0.996  -4.329   2.129
   74LA     H1A 1622   0.905  -4.325   2.069
   74LA     H1B 1623   0.969  -4.374   2.225
   74LA     H1C 1624   1.065  -4.398   2.080
   75EH     H00 1625   1.995  -4.533   2.432
   75EH     C01 1626   2.043  -4.582   2.347
   75EH     H02 1627   2.120  -4.646   2.389
   75EH     H03 1628   1.972  -4.655   2.308
   75EH     C04 1629   2.098  -4.483   2.243
   75EH     C05 1630   2.250  -4.486   2.256
   75EH     H06 1631   2.284  -4.589   2.259
   75EH     H07 1632   2.287  -4.428   2.172
   75EH     C08 1633   2.053  -4.343   2.250
   75EH     O09 1634   2.054  -4.266   2.154
   75EH     O0A 1635   2.013  -4.305   2.376
   75EH     C0B 1636   1.991  -4.167   2.410
   75EH     H0C 1637   1.885  -4.144   2.398
   75EH     H0D 1638   2.044  -4.105   2.338
   75EH     C0E 1639   2.041  -4.132   2.554
   75EH     H0F 1640   2.136  -4.184   2.565
   75EH     C0G 1641   2.074  -3.981   2.566
   75EH     H0H 1642   2.126  -3.947   2.476
   75EH     H0I 1643   2.147  -3.966   2.646
   75EH     C0J 1644   1.954  -3.889   2.593
   75EH     H0K 1645   1.981  -3.784   2.579
   75EH     H0M 1646   1.919  -3.898   2.696
   75EH     H0N 1647   1.870  -3.912   2.527
   75EH     C0O 1648   1.946  -4.180   2.667
   75EH     H0P 1649   1.851  -4.129   2.659
   75EH     H0Q 1650   1.922  -4.285   2.650
   75EH     C0R 1651   2.003  -4.167   2.812
   75EH     H0S 1652   2.095  -4.109   2.813
   75EH     H0T 1653   2.031  -4.266   2.847
   75EH     C0U 1654   1.904  -4.103   2.913
   75EH     H0V 1655   1.910  -3.995   2.906
   75EH     H0W 1656   1.801  -4.130   2.888
   75EH     C0X 1657   1.931  -4.144   3.058
   75EH     H0Y 1658   1.864  -4.092   3.127
   75EH     H0Z 1659   2.033  -4.121   3.089
   75EH     H10 1660   1.916  -4.251   3.073
   76EH     H00 1661   2.310  -4.392   2.594
   76EH     C01 1662   2.279  -4.446   2.505
   76EH     H02 1663   2.266  -4.552   2.529
   76EH     H03 1664   2.181  -4.402   2.486
   76EH     C04 1665   2.375  -4.423   2.391
   76EH     C05 1666   2.515  -4.469   2.426
   76EH     H06 1667   2.494  -4.575   2.427
   76EH     H07 1668   2.586  -4.430   2.354
   76EH     C08 1669   2.390  -4.282   2.350
   76EH     O09 1670   2.374  -4.236   2.238
   76EH     O0A 1671   2.436  -4.208   2.452
   76EH     C0B 1672   2.509  -4.087   2.430
   76EH     H0C 1673   2.479  -4.019   2.510
   76EH     H0D 1674   2.483  -4.037   2.337
   76EH     C0E 1675   2.661  -4.116   2.439
   76EH     H0F 1676   2.658  -4.206   2.501
   76EH     C0G 1677   2.727  -4.164   2.309
   76EH     H0H 1678   2.659  -4.232   2.256
   76EH     H0I 1679   2.814  -4.225   2.333
   76EH     C0J 1680   2.770  -4.053   2.213
   76EH     H0K 1681   2.806  -4.095   2.119
   76EH     H0M 1682   2.851  -3.994   2.256
   76EH     H0N 1683   2.687  -3.986   2.191
   76EH     C0O 1684   2.743  -4.009   2.518
   76EH     H0P 1685   2.755  -3.918   2.460
   76EH     H0Q 1686   2.684  -3.980   2.605
   76EH     C0R 1687   2.879  -4.057   2.575
   76EH     H0S 1688   2.883  -4.165   2.568
   76EH     H0T 1689   2.881  -4.036   2.682
   76EH     C0U 1690   3.006  -3.998   2.510
   76EH     H0V 1691   3.018  -4.041   2.410
   76EH     H0W 1692   2.994  -3.890   2.498
   76EH     C0X 1693   3.136  -4.024   2.588
   76EH     H0Y 1694   3.218  -3.961   2.553
   76EH     H0Z 1695   3.169  -4.127   2.575
   76EH     H10 1696   3.125  -4.005   2.695
   77EH     H00 1697   2.723  -4.684   2.624
   77EH     C01 1698   2.662  -4.630   2.550
   77EH     H02 1699   2.695  -4.651   2.449
   77EH     H03 1700   2.576  -4.697   2.557
   77EH     C04 1701   2.637  -4.478   2.577
   77EH     C05 1702   2.760  -4.401   2.636
   77EH     H06 1703   2.738  -4.296   2.651
   77EH     H07 1704   2.747  -4.432   2.738
   77EH     C08 1705   2.530  -4.464   2.678
   77EH     O09 1706   2.509  -4.363   2.744
   77EH     O0A 1707   2.463  -4.579   2.700
   77EH     C0B 1708   2.367  -4.593   2.803
   77EH     H0C 1709   2.288  -4.520   2.790
   77EH     H0D 1710   2.413  -4.573   2.900
   77EH     C0E 1711   2.313  -4.738   2.793
   77EH     H0F 1712   2.290  -4.754   2.688
   77EH     C0G 1713   2.421  -4.842   2.832
   77EH     H0H 1714   2.514  -4.818   2.780
   77EH     H0I 1715   2.393  -4.940   2.794
   77EH     C0J 1716   2.450  -4.855   2.983
   77EH     H0K 1717   2.526  -4.930   3.001
   77EH     H0M 1718   2.361  -4.886   3.039
   77EH     H0N 1719   2.485  -4.761   3.025
   77EH     C0O 1720   2.179  -4.756   2.869
   77EH     H0P 1721   2.195  -4.742   2.976
   77EH     H0Q 1722   2.110  -4.677   2.840
   77EH     C0R 1723   2.110  -4.892   2.842
   77EH     H0S 1724   2.183  -4.972   2.846
   77EH     H0T 1725   2.069  -4.894   2.740
   77EH     C0U 1726   2.000  -4.927   2.944
   77EH     H0V 1727   1.987  -5.035   2.945
   77EH     H0W 1728   2.034  -4.901   3.044
   77EH     C0X 1729   1.865  -4.862   2.915
   77EH     H0Y 1730   1.794  -4.884   2.994
   77EH     H0Z 1731   1.822  -4.899   2.822
   77EH     H10 1732   1.873  -4.753   2.907
   78LA     H00 1733   2.886  -4.613   2.688
   78LA     C01 1734   2.944  -4.539   2.745
   78LA     H02 1735   3.044  -4.577   2.726
   78LA     H03 1736   2.915  -4.544   2.850
   78LA     C04 1737   2.948  -4.401   2.685
   78LA     C05 1738   3.022  -4.303   2.782
   78LA     H06 1739   3.035  -4.210   2.729
   78LA     H07 1740   2.963  -4.302   2.873
   78LA     C08 1741   2.992  -4.411   2.542
   78LA     O09 1742   3.032  -4.318   2.473
   78LA     O0A 1743   2.997  -4.541   2.490
   78LA     C0B 1744   2.925  -4.585   2.372
   78LA     H0C 1745   2.839  -4.520   2.355
   78LA     H0D 1746   2.890  -4.683   2.403
   78LA     C0E 1747   2.992  -4.618   2.235
   78LA     H0F 1748   3.024  -4.526   2.187
   78LA     H0G 1749   3.083  -4.674   2.256
   78LA     C0H 1750   2.899  -4.701   2.138
   78LA     H0I 1751   2.809  -4.734   2.190
   78LA     H0J 1752   2.864  -4.635   2.059
   78LA     C0K 1753   2.963  -4.826   2.070
   78LA     H0M 1754   3.038  -4.792   1.999
   78LA     H0N 1755   3.014  -4.887   2.144
   78LA     C0O 1756   2.866  -4.919   1.992
   78LA     H0P 1757   2.790  -4.860   1.941
   78LA     H0Q 1758   2.921  -4.970   1.913
   78LA     C0R 1759   2.803  -5.028   2.081
   78LA     H0S 1760   2.875  -5.109   2.097
   78LA     H0T 1761   2.784  -4.986   2.180
   78LA     C0U 1762   2.672  -5.087   2.026
   78LA     H0V 1763   2.605  -5.005   2.001
   78LA     H0W 1764   2.688  -5.142   1.933
   78LA     C0X 1765   2.601  -5.177   2.130
   78LA     H0Y 1766   2.617  -5.135   2.230
   78LA     H0Z 1767   2.493  -5.172   2.115
   78LA     C10 1768   2.645  -5.324   2.126
   78LA     H11 1769   2.744  -5.334   2.084
   78LA     H12 1770   2.579  -5.378   2.057
   78LA     C13 1771   2.639  -5.393   2.264
   78LA     H14 1772   2.590  -5.490   2.255
   78LA     H15 1773   2.576  -5.336   2.332
   78LA     C16 1774   2.778  -5.413   2.327
   78LA     H17 1775   2.767  -5.431   2.434
   78LA     H18 1776   2.836  -5.321   2.318
   78LA     C19 1777   2.855  -5.530   2.265
   78LA     H1A 1778   2.802  -5.624   2.279
   78LA     H1B 1779   2.954  -5.541   2.310
   78LA     H1C 1780   2.870  -5.517   2.158
   79LA     H00 1781   3.340  -4.212   2.728
   79LA     C01 1782   3.283  -4.301   2.755
   79LA     H02 1783   3.222  -4.330   2.669
   79LA     H03 1784   3.355  -4.383   2.765
   79LA     C04 1785   3.198  -4.286   2.881
   79LA     C05 1786   3.278  -4.191   2.991
   79LA     H06 1787   3.376  -4.195   2.946
   79LA     H07 1788   3.276  -4.258   3.076
   79LA     C08 1789   3.166  -4.429   2.929
   79LA     O09 1790   3.075  -4.445   3.007
   79LA     O0A 1791   3.223  -4.557   2.874
   79LA     C0B 1792   3.161  -4.693   2.911
   79LA     H0C 1793   3.057  -4.703   2.881
   79LA     H0D 1794   3.151  -4.680   3.019
   79LA     C0E 1795   3.207  -4.849   2.908
   79LA     H0F 1796   3.294  -4.862   2.972
   79LA     H0G 1797   3.129  -4.897   2.968
   79LA     C0H 1798   3.222  -4.959   2.791
   79LA     H0I 1799   3.324  -4.971   2.757
   79LA     H0J 1800   3.217  -5.054   2.845
   79LA     C0K 1801   3.121  -4.984   2.673
   79LA     H0M 1802   3.086  -5.086   2.685
   79LA     H0N 1803   3.030  -4.924   2.682
   79LA     C0O 1804   3.176  -4.984   2.526
   79LA     H0P 1805   3.268  -5.041   2.517
   79LA     H0Q 1806   3.105  -5.041   2.465
   79LA     C0R 1807   3.188  -4.845   2.457
   79LA     H0S 1808   3.144  -4.852   2.358
   79LA     H0T 1809   3.127  -4.774   2.512
   79LA     C0U 1810   3.333  -4.790   2.444
   79LA     H0V 1811   3.389  -4.845   2.369
   79LA     H0W 1812   3.329  -4.685   2.413
   79LA     C0X 1813   3.403  -4.803   2.577
   79LA     H0Y 1814   3.318  -4.798   2.645
   79LA     H0Z 1815   3.453  -4.900   2.586
   79LA     C10 1816   3.488  -4.692   2.638
   79LA     H11 1817   3.434  -4.598   2.632
   79LA     H12 1818   3.584  -4.682   2.586
   79LA     C13 1819   3.509  -4.732   2.785
   79LA     H14 1820   3.566  -4.824   2.794
   79LA     H15 1821   3.414  -4.768   2.825
   79LA     C16 1822   3.545  -4.624   2.887
   79LA     H17 1823   3.593  -4.674   2.972
   79LA     H18 1824   3.454  -4.584   2.930
   79LA     C19 1825   3.629  -4.509   2.831
   79LA     H1A 1826   3.725  -4.544   2.794
   79LA     H1B 1827   3.646  -4.435   2.910
   79LA     H1C 1828   3.577  -4.459   2.750
   80EH     H00 1829   3.484  -4.025   2.931
   80EH     C01 1830   3.391  -3.971   2.947
   80EH     H02 1831   3.417  -3.866   2.939
   80EH     H03 1832   3.321  -3.996   2.868
   80EH     C04 1833   3.335  -4.002   3.086
   80EH     C05 1834   3.421  -3.914   3.200
   80EH     H06 1835   3.365  -3.934   3.290
   80EH     H07 1836   3.516  -3.957   3.170
   80EH     C08 1837   3.195  -4.036   3.126
   80EH     O09 1838   3.100  -4.003   3.057
   80EH     O0A 1839   3.183  -4.142   3.225
   80EH     C0B 1840   3.065  -4.233   3.225
   80EH     H0C 1841   3.036  -4.250   3.121
   80EH     H0D 1842   2.984  -4.167   3.257
   80EH     C0E 1843   3.048  -4.371   3.310
   80EH     H0F 1844   3.075  -4.342   3.412
   80EH     C0G 1845   2.896  -4.412   3.314
   80EH     H0H 1846   2.835  -4.323   3.325
   80EH     H0I 1847   2.878  -4.471   3.404
   80EH     C0J 1848   2.837  -4.495   3.196
   80EH     H0K 1849   2.729  -4.505   3.207
   80EH     H0M 1850   2.875  -4.596   3.191
   80EH     H0N 1851   2.852  -4.447   3.099
   80EH     C0O 1852   3.132  -4.504   3.282
   80EH     H0P 1853   3.089  -4.557   3.197
   80EH     H0Q 1854   3.234  -4.481   3.252
   80EH     C0R 1855   3.133  -4.618   3.390
   80EH     H0S 1856   3.057  -4.600   3.466
   80EH     H0T 1857   3.228  -4.615   3.442
   80EH     C0U 1858   3.110  -4.763   3.335
   80EH     H0V 1859   3.004  -4.788   3.341
   80EH     H0W 1860   3.134  -4.771   3.229
   80EH     C0X 1861   3.189  -4.875   3.407
   80EH     H0Y 1862   3.159  -4.973   3.371
   80EH     H0Z 1863   3.173  -4.874   3.515
   80EH     H10 1864   3.296  -4.866   3.388
   81ST     H00 1865   3.635  -3.797   3.099
   81ST     C01 1866   3.664  -3.783   3.204
   81ST     H02 1867   3.713  -3.875   3.237
   81ST     H03 1868   3.744  -3.710   3.204
   81ST     C04 1869   3.546  -3.744   3.294
   81ST     C05 1870   3.571  -3.582   3.347
   81ST     H06 1871   3.483  -3.561   3.405
   81ST     H07 1872   3.598  -3.530   3.257
   81ST     C08 1873   3.522  -3.829   3.412
   81ST     O09 1874   3.480  -3.789   3.520
   81ST     O0A 1875   3.559  -3.961   3.392
   81ST     C0B 1876   3.547  -4.064   3.490
   81ST     H0C 1877   3.626  -4.136   3.468
   81ST     H0D 1878   3.572  -4.024   3.589
   81ST     C0E 1879   3.415  -4.145   3.494
   81ST     H0F 1880   3.437  -4.244   3.537
   81ST     H0G 1881   3.380  -4.168   3.393
   81ST     C0H 1882   3.298  -4.088   3.579
   81ST     H0I 1883   3.225  -4.167   3.596
   81ST     H0J 1884   3.246  -4.014   3.519
   81ST     C0K 1885   3.337  -4.024   3.714
   81ST     H0M 1886   3.385  -3.929   3.693
   81ST     H0N 1887   3.246  -3.996   3.767
   81ST     C0O 1888   3.426  -4.107   3.808
   81ST     H0P 1889   3.495  -4.171   3.753
   81ST     H0Q 1890   3.363  -4.175   3.865
   81ST     C0R 1891   3.507  -4.018   3.905
   81ST     H0S 1892   3.538  -4.077   3.992
   81ST     H0T 1893   3.440  -3.942   3.946
   81ST     C0U 1894   3.630  -3.947   3.844
   81ST     H0V 1895   3.665  -3.873   3.916
   81ST     H0W 1896   3.600  -3.889   3.757
   81ST     C0X 1897   3.750  -4.037   3.807
   81ST     H0Y 1898   3.728  -4.100   3.720
   81ST     H0Z 1899   3.830  -3.972   3.773
   81ST     C10 1900   3.804  -4.124   3.922
   81ST     H11 1901   3.912  -4.128   3.917
   81ST     H12 1902   3.782  -4.075   4.016
   81ST     C13 1903   3.748  -4.268   3.923
   81ST     H14 1904   3.768  -4.308   4.022
   81ST     H15 1905   3.639  -4.268   3.915
   81ST     C16 1906   3.813  -4.363   3.821
   81ST     H17 1907   3.913  -4.326   3.795
   81ST     H18 1908   3.833  -4.456   3.874
   81ST     C19 1909   3.737  -4.392   3.688
   81ST     H1A 1910   3.732  -4.299   3.631
   81ST     H1B 1911   3.798  -4.458   3.626
   81ST     C1C 1912   3.594  -4.451   3.698
   81ST     H1D 1913   3.536  -4.402   3.775
   81ST     H1E 1914   3.544  -4.426   3.604
   81ST     C1F 1915   3.582  -4.604   3.711
   81ST     H1G 1916   3.476  -4.629   3.705
   81ST     H1H 1917   3.629  -4.655   3.627
   81ST     C1I 1918   3.635  -4.658   3.844
   81ST     H1J 1919   3.570  -4.737   3.883
   81ST     H1K 1920   3.629  -4.576   3.916
   81ST     C1M 1921   3.779  -4.709   3.836
   81ST     H1N 1922   3.826  -4.706   3.934
   81ST     H1O 1923   3.837  -4.641   3.773
   81ST     C1P 1924   3.793  -4.850   3.777
   81ST     H1Q 1925   3.782  -4.926   3.855
   81ST     H1R 1926   3.714  -4.869   3.704
   81ST     C1S 1927   3.928  -4.865   3.709
   81ST     H1T 1928   3.946  -4.968   3.678
   81ST     H1U 1929   4.010  -4.833   3.773
   81ST     H1V 1930   3.929  -4.802   3.620
   82ST     H00 1931   3.563  -3.454   3.648
   82ST     C01 1932   3.651  -3.498   3.600
   82ST     H02 1933   3.732  -3.501   3.673
   82ST     H03 1934   3.630  -3.603   3.580
   82ST     C04 1935   3.693  -3.425   3.471
   82ST     C05 1936   3.719  -3.259   3.518
   82ST     H06 1937   3.765  -3.294   3.609
   82ST     H07 1938   3.619  -3.222   3.539
   82ST     C08 1939   3.820  -3.489   3.439
   82ST     O09 1940   3.834  -3.605   3.401
   82ST     O0A 1941   3.921  -3.407   3.459
   82ST     C0B 1942   4.015  -3.390   3.357
   82ST     H0C 1943   4.081  -3.477   3.350
   82ST     H0D 1944   4.080  -3.308   3.388
   82ST     C0E 1945   3.942  -3.349   3.228
   82ST     H0F 1946   3.988  -3.260   3.184
   82ST     H0G 1947   3.842  -3.313   3.253
   82ST     C0H 1948   3.933  -3.459   3.122
   82ST     H0I 1949   3.887  -3.418   3.032
   82ST     H0J 1950   3.864  -3.536   3.157
   82ST     C0K 1951   4.069  -3.524   3.089
   82ST     H0M 1952   4.101  -3.587   3.173
   82ST     H0N 1953   4.055  -3.595   3.007
   82ST     C0O 1954   4.177  -3.421   3.052
   82ST     H0P 1955   4.163  -3.327   3.106
   82ST     H0Q 1956   4.164  -3.395   2.947
   82ST     C0R 1957   4.322  -3.463   3.079
   82ST     H0S 1958   4.386  -3.400   3.018
   82ST     H0T 1959   4.337  -3.564   3.042
   82ST     C0U 1960   4.369  -3.455   3.226
   82ST     H0V 1961   4.471  -3.493   3.230
   82ST     H0W 1962   4.311  -3.524   3.287
   82ST     C0X 1963   4.370  -3.316   3.296
   82ST     H0Y 1964   4.269  -3.286   3.324
   82ST     H0Z 1965   4.422  -3.328   3.391
   82ST     C10 1966   4.436  -3.200   3.219
   82ST     H11 1967   4.510  -3.152   3.284
   82ST     H12 1968   4.495  -3.239   3.136
   82ST     C13 1969   4.338  -3.093   3.166
   82ST     H14 1970   4.387  -3.043   3.082
   82ST     H15 1971   4.248  -3.137   3.123
   82ST     C16 1972   4.302  -2.982   3.266
   82ST     H17 1973   4.375  -2.980   3.347
   82ST     H18 1974   4.311  -2.885   3.219
   82ST     C19 1975   4.165  -2.996   3.333
   82ST     H1A 1976   4.171  -3.088   3.392
   82ST     H1B 1977   4.160  -2.915   3.406
   82ST     C1C 1978   4.034  -2.999   3.249
   82ST     H1D 1979   4.049  -3.031   3.146
   82ST     H1E 1980   3.974  -3.078   3.294
   82ST     C1F 1981   3.940  -2.877   3.258
   82ST     H1G 1982   3.838  -2.910   3.241
   82ST     H1H 1983   3.932  -2.840   3.361
   82ST     C1I 1984   3.968  -2.764   3.158
   82ST     H1J 1985   3.878  -2.703   3.147
   82ST     H1K 1986   3.985  -2.810   3.060
   82ST     C1M 1987   4.083  -2.671   3.194
   82ST     H1N 1988   4.104  -2.602   3.112
   82ST     H1O 1989   4.176  -2.726   3.208
   82ST     C1P 1990   4.055  -2.577   3.310
   82ST     H1Q 1991   4.109  -2.484   3.292
   82ST     H1R 1992   3.950  -2.549   3.312
   82ST     C1S 1993   4.100  -2.641   3.441
   82ST     H1T 1994   4.024  -2.709   3.479
   82ST     H1U 1995   4.119  -2.569   3.520
   82ST     H1V 1996   4.192  -2.699   3.428
   83LA     H00 1997   4.045  -3.070   3.647
   83LA     C01 1998   3.975  -3.083   3.564
   83LA     H02 1999   4.001  -2.994   3.507
   83LA     H03 2000   4.003  -3.179   3.520
   83LA     C04 2001   3.832  -3.073   3.610
   83LA     C05 2002   3.818  -2.900   3.619
   83LA     H06 2003   3.752  -2.906   3.704
   83LA     H07 2004   3.777  -2.871   3.523
   83LA     C08 2005   3.850  -3.145   3.746
   83LA     O09 2006   3.788  -3.111   3.846
   83LA     O0A 2007   3.959  -3.252   3.759
   83LA     C0B 2008   4.046  -3.282   3.882
   83LA     H0C 2009   3.984  -3.268   3.971
   83LA     H0D 2010   4.117  -3.200   3.884
   83LA     C0E 2011   4.137  -3.418   3.905
   83LA     H0F 2012   4.069  -3.500   3.931
   83LA     H0G 2013   4.180  -3.448   3.810
   83LA     C0H 2014   4.259  -3.426   4.016
   83LA     H0I 2015   4.332  -3.349   3.989
   83LA     H0J 2016   4.220  -3.394   4.112
   83LA     C0K 2017   4.347  -3.560   4.044
   83LA     H0M 2018   4.278  -3.643   4.061
   83LA     H0N 2019   4.400  -3.588   3.953
   83LA     C0O 2020   4.453  -3.566   4.165
   83LA     H0P 2021   4.474  -3.465   4.201
   83LA     H0Q 2022   4.405  -3.615   4.250
   83LA     C0R 2023   4.593  -3.640   4.146
   83LA     H0S 2024   4.577  -3.740   4.106
   83LA     H0T 2025   4.649  -3.587   4.069
   83LA     C0U 2026   4.690  -3.658   4.271
   83LA     H0V 2027   4.687  -3.567   4.332
   83LA     H0W 2028   4.652  -3.736   4.337
   83LA     C0X 2029   4.841  -3.688   4.239
   83LA     H0Y 2030   4.853  -3.710   4.133
   83LA     H0Z 2031   4.898  -3.597   4.255
   83LA     C10 2032   4.913  -3.800   4.320
   83LA     H11 2033   4.852  -3.890   4.325
   83LA     H12 2034   4.925  -3.768   4.424
   83LA     C13 2035   5.054  -3.838   4.267
   83LA     H14 2036   5.122  -3.859   4.349
   83LA     H15 2037   5.099  -3.751   4.217
   83LA     C16 2038   5.057  -3.958   4.170
   83LA     H17 2039   5.142  -3.949   4.103
   83LA     H18 2040   4.969  -3.956   4.106
   83LA     C19 2041   5.067  -4.094   4.241
   83LA     H1A 2042   5.164  -4.107   4.289
   83LA     H1B 2043   5.057  -4.176   4.170
   83LA     H1C 2044   4.991  -4.107   4.317
   84ST     H00 2045   3.792  -2.762   3.857
   84ST     C01 2046   3.771  -2.691   3.777
   84ST     H02 2047   3.681  -2.720   3.724
   84ST     H03 2048   3.744  -2.600   3.829
   84ST     C04 2049   3.890  -2.679   3.680
   84ST     C05 2050   3.890  -2.504   3.662
   84ST     H06 2051   3.792  -2.480   3.623
   84ST     H07 2052   3.902  -2.484   3.767
   84ST     C08 2053   4.011  -2.720   3.753
   84ST     O09 2054   4.030  -2.835   3.792
   84ST     O0A 2055   4.097  -2.616   3.779
   84ST     C0B 2056   4.187  -2.619   3.891
   84ST     H0C 2057   4.141  -2.561   3.971
   84ST     H0D 2058   4.194  -2.719   3.933
   84ST     C0E 2059   4.330  -2.563   3.869
   84ST     H0F 2060   4.400  -2.615   3.934
   84ST     H0G 2061   4.333  -2.459   3.902
   84ST     C0H 2062   4.382  -2.568   3.726
   84ST     H0I 2063   4.487  -2.537   3.726
   84ST     H0J 2064   4.330  -2.493   3.667
   84ST     C0K 2065   4.368  -2.704   3.656
   84ST     H0M 2066   4.263  -2.733   3.646
   84ST     H0N 2067   4.401  -2.691   3.553
   84ST     C0O 2068   4.450  -2.819   3.716
   84ST     H0P 2069   4.534  -2.780   3.774
   84ST     H0Q 2070   4.497  -2.865   3.629
   84ST     C0R 2071   4.371  -2.934   3.784
   84ST     H0S 2072   4.415  -3.028   3.749
   84ST     H0T 2073   4.270  -2.936   3.744
   84ST     C0U 2074   4.362  -2.945   3.938
   84ST     H0V 2075   4.347  -3.050   3.962
   84ST     H0W 2076   4.268  -2.902   3.972
   84ST     C0X 2077   4.477  -2.890   4.026
   84ST     H0Y 2078   4.542  -2.818   3.976
   84ST     H0Z 2079   4.431  -2.831   4.105
   84ST     C10 2080   4.560  -2.999   4.096
   84ST     H11 2081   4.617  -2.955   4.178
   84ST     H12 2082   4.492  -3.069   4.143
   84ST     C13 2083   4.656  -3.076   4.003
   84ST     H14 2084   4.681  -3.168   4.056
   84ST     H15 2085   4.605  -3.111   3.914
   84ST     C16 2086   4.790  -3.006   3.973
   84ST     H17 2087   4.821  -2.949   4.060
   84ST     H18 2088   4.868  -3.081   3.962
   84ST     C19 2089   4.796  -2.912   3.850
   84ST     H1A 2090   4.744  -2.820   3.876
   84ST     H1B 2091   4.899  -2.881   3.834
   84ST     C1C 2092   4.738  -2.963   3.716
   84ST     H1D 2093   4.639  -3.008   3.730
   84ST     H1E 2094   4.720  -2.873   3.658
   84ST     C1F 2095   4.823  -3.053   3.626
   84ST     H1G 2096   4.794  -3.029   3.524
   84ST     H1H 2097   4.929  -3.027   3.630
   84ST     C1I 2098   4.798  -3.205   3.639
   84ST     H1J 2099   4.817  -3.251   3.542
   84ST     H1K 2100   4.693  -3.224   3.660
   84ST     C1M 2101   4.885  -3.279   3.743
   84ST     H1N 2102   4.862  -3.385   3.733
   84ST     H1O 2103   4.853  -3.254   3.844
   84ST     C1P 2104   5.036  -3.259   3.723
   84ST     H1Q 2105   5.086  -3.356   3.734
   84ST     H1R 2106   5.058  -3.227   3.622
   84ST     C1S 2107   5.099  -3.162   3.824
   84ST     H1T 2108   5.206  -3.150   3.806
   84ST     H1U 2109   5.087  -3.197   3.926
   84ST     H1V 2110   5.054  -3.062   3.818
   85ST     H00 2111   4.025  -2.223   3.456
   85ST     C01 2112   4.015  -2.312   3.517
   85ST     H02 2113   3.945  -2.381   3.469
   85ST     H03 2114   4.112  -2.362   3.522
   85ST     C04 2115   3.974  -2.284   3.660
   85ST     C05 2116   3.942  -2.116   3.675
   85ST     H06 2117   3.864  -2.111   3.601
   85ST     H07 2118   3.927  -2.102   3.781
   85ST     C08 2119   4.080  -2.296   3.761
   85ST     O09 2120   4.063  -2.339   3.875
   85ST     O0A 2121   4.193  -2.229   3.721
   85ST     C0B 2122   4.278  -2.162   3.815
   85ST     H0C 2123   4.220  -2.142   3.905
   85ST     H0D 2124   4.360  -2.227   3.846
   85ST     C0E 2125   4.329  -2.026   3.760
   85ST     H0F 2126   4.290  -1.944   3.821
   85ST     H0G 2127   4.284  -2.011   3.662
   85ST     C0H 2128   4.481  -2.007   3.740
   85ST     H0I 2129   4.496  -1.907   3.700
   85ST     H0J 2130   4.512  -2.075   3.661
   85ST     C0K 2131   4.574  -2.026   3.862
   85ST     H0M 2132   4.561  -2.127   3.901
   85ST     H0N 2133   4.678  -2.024   3.829
   85ST     C0O 2134   4.563  -1.920   3.972
   85ST     H0P 2135   4.467  -1.868   3.966
   85ST     H0Q 2136   4.637  -1.842   3.954
   85ST     C0R 2137   4.583  -1.978   4.113
   85ST     H0S 2138   4.594  -1.897   4.186
   85ST     H0T 2139   4.679  -2.029   4.117
   85ST     C0U 2140   4.472  -2.074   4.158
   85ST     H0V 2141   4.492  -2.107   4.260
   85ST     H0W 2142   4.478  -2.165   4.098
   85ST     C0X 2143   4.327  -2.021   4.149
   85ST     H0Y 2144   4.304  -1.983   4.049
   85ST     H0Z 2145   4.261  -2.106   4.162
   85ST     C10 2146   4.290  -1.916   4.255
   85ST     H11 2147   4.183  -1.923   4.276
   85ST     H12 2148   4.339  -1.941   4.348
   85ST     C13 2149   4.324  -1.771   4.216
   85ST     H14 2150   4.318  -1.712   4.307
   85ST     H15 2151   4.429  -1.765   4.186
   85ST     C16 2152   4.231  -1.707   4.110
   85ST     H17 2153   4.161  -1.781   4.073
   85ST     H18 2154   4.168  -1.633   4.160
   85ST     C19 2155   4.295  -1.639   3.987
   85ST     H1A 2156   4.301  -1.713   3.907
   85ST     H1B 2157   4.227  -1.564   3.948
   85ST     C1C 2158   4.436  -1.576   3.998
   85ST     H1D 2159   4.512  -1.647   4.029
   85ST     H1E 2160   4.464  -1.552   3.895
   85ST     C1F 2161   4.450  -1.445   4.077
   85ST     H1G 2162   4.540  -1.399   4.036
   85ST     H1H 2163   4.371  -1.374   4.051
   85ST     C1I 2164   4.475  -1.459   4.228
   85ST     H1J 2165   4.554  -1.390   4.256
   85ST     H1K 2166   4.517  -1.558   4.249
   85ST     C1M 2167   4.354  -1.435   4.321
   85ST     H1N 2168   4.382  -1.465   4.421
   85ST     H1O 2169   4.270  -1.499   4.296
   85ST     C1P 2170   4.306  -1.289   4.325
   85ST     H1Q 2171   4.262  -1.268   4.423
   85ST     H1R 2172   4.389  -1.219   4.315
   85ST     C1S 2173   4.199  -1.260   4.219
   85ST     H1T 2174   4.223  -1.170   4.161
   85ST     H1U 2175   4.102  -1.245   4.266
   85ST     H1V 2176   4.187  -1.343   4.150
   86EH     H00 2177   3.822  -1.779   3.557
   86EH     C01 2178   3.847  -1.881   3.586
   86EH     H02 2179   3.772  -1.917   3.656
   86EH     H03 2180   3.841  -1.936   3.492
   86EH     C04 2181   3.987  -1.889   3.646
   86EH     C05 2182   3.999  -1.739   3.725
   86EH     H06 2183   4.103  -1.737   3.752
   86EH     H07 2184   3.923  -1.742   3.802
   86EH     C08 2185   4.088  -1.899   3.532
   86EH     O09 2186   4.086  -1.992   3.452
   86EH     O0A 2187   4.180  -1.790   3.507
   86EH     C0B 2188   4.215  -1.737   3.372
   86EH     H0C 2189   4.189  -1.632   3.383
   86EH     H0D 2190   4.141  -1.774   3.301
   86EH     C0E 2191   4.360  -1.734   3.297
   86EH     H0F 2192   4.435  -1.744   3.375
   86EH     C0G 2193   4.375  -1.857   3.202
   86EH     H0H 2194   4.288  -1.922   3.214
   86EH     H0I 2195   4.460  -1.917   3.236
   86EH     C0J 2196   4.394  -1.838   3.049
   86EH     H0K 2197   4.368  -1.929   2.996
   86EH     H0M 2198   4.498  -1.819   3.024
   86EH     H0N 2199   4.333  -1.758   3.006
   86EH     C0O 2200   4.393  -1.597   3.220
   86EH     H0P 2201   4.322  -1.581   3.139
   86EH     H0Q 2202   4.369  -1.518   3.291
   86EH     C0R 2203   4.538  -1.558   3.170
   86EH     H0S 2204   4.611  -1.628   3.211
   86EH     H0T 2205   4.566  -1.464   3.218
   86EH     C0U 2206   4.558  -1.530   3.016
   86EH     H0V 2207   4.542  -1.621   2.957
   86EH     H0W 2208   4.481  -1.462   2.982
   86EH     C0X 2209   4.694  -1.469   2.970
   86EH     H0Y 2210   4.691  -1.444   2.864
   86EH     H0Z 2211   4.779  -1.537   2.977
   86EH     H10 2212   4.721  -1.379   3.024
   87EH     H00 2213   3.894  -1.437   3.535
   87EH     C01 2214   3.908  -1.530   3.590
   87EH     H02 2215   3.810  -1.570   3.616
   87EH     H03 2216   3.958  -1.598   3.521
   87EH     C04 2217   3.994  -1.512   3.715
   87EH     C05 2218   3.933  -1.374   3.787
   87EH     H06 2219   3.943  -1.308   3.702
   87EH     H07 2220   3.830  -1.397   3.809
   87EH     C08 2221   4.128  -1.472   3.652
   87EH     O09 2222   4.230  -1.540   3.663
   87EH     O0A 2223   4.129  -1.352   3.564
   87EH     C0B 2224   4.250  -1.296   3.493
   87EH     H0C 2225   4.270  -1.360   3.408
   87EH     H0D 2226   4.334  -1.314   3.560
   87EH     C0E 2227   4.260  -1.141   3.441
   87EH     H0F 2228   4.176  -1.092   3.490
   87EH     C0G 2229   4.390  -1.064   3.488
   87EH     H0H 2230   4.432  -1.109   3.578
   87EH     H0I 2231   4.361  -0.964   3.521
   87EH     C0J 2232   4.503  -1.039   3.383
   87EH     H0K 2233   4.595  -0.999   3.427
   87EH     H0M 2234   4.477  -0.962   3.310
   87EH     H0N 2235   4.532  -1.128   3.329
   87EH     C0O 2236   4.243  -1.107   3.287
   87EH     H0P 2237   4.329  -1.145   3.231
   87EH     H0Q 2238   4.160  -1.166   3.248
   87EH     C0R 2239   4.222  -0.954   3.251
   87EH     H0S 2240   4.255  -0.890   3.332
   87EH     H0T 2241   4.115  -0.933   3.246
   87EH     C0U 2242   4.291  -0.898   3.121
   87EH     H0V 2243   4.391  -0.863   3.144
   87EH     H0W 2244   4.304  -0.975   3.045
   87EH     C0X 2245   4.219  -0.777   3.055
   87EH     H0Y 2246   4.283  -0.730   2.980
   87EH     H0Z 2247   4.194  -0.700   3.127
   87EH     H10 2248   4.128  -0.807   3.004
   88EH     H00 2249   3.956  -1.198   4.104
   88EH     C01 2250   3.939  -1.263   4.017
   88EH     H02 2251   4.017  -1.338   4.014
   88EH     H03 2252   3.843  -1.314   4.025
   88EH     C04 2253   3.943  -1.180   3.893
   88EH     C05 2254   3.860  -1.038   3.915
   88EH     H06 2255   3.770  -1.087   3.946
   88EH     H07 2256   3.876  -0.983   3.824
   88EH     C08 2257   4.080  -1.148   3.848
   88EH     O09 2258   4.164  -1.228   3.811
   88EH     O0A 2259   4.108  -1.017   3.866
   88EH     C0B 2260   4.206  -0.948   3.791
   88EH     H0C 2261   4.210  -0.993   3.691
   88EH     H0D 2262   4.305  -0.960   3.834
   88EH     C0E 2263   4.158  -0.801   3.785
   88EH     H0F 2264   4.062  -0.800   3.836
   88EH     C0G 2265   4.241  -0.704   3.873
   88EH     H0H 2266   4.241  -0.742   3.975
   88EH     H0I 2267   4.188  -0.609   3.878
   88EH     C0J 2268   4.385  -0.678   3.828
   88EH     H0K 2269   4.447  -0.768   3.834
   88EH     H0M 2270   4.431  -0.603   3.893
   88EH     H0N 2271   4.390  -0.639   3.726
   88EH     C0O 2272   4.130  -0.747   3.642
   88EH     H0P 2273   4.178  -0.651   3.626
   88EH     H0Q 2274   4.174  -0.814   3.568
   88EH     C0R 2275   3.979  -0.733   3.612
   88EH     H0S 2276   3.924  -0.815   3.659
   88EH     H0T 2277   3.963  -0.745   3.505
   88EH     C0U 2278   3.921  -0.598   3.655
   88EH     H0V 2279   3.948  -0.575   3.758
   88EH     H0W 2280   3.965  -0.519   3.595
   88EH     C0X 2281   3.768  -0.593   3.641
   88EH     H0Y 2282   3.731  -0.491   3.657
   88EH     H0Z 2283   3.719  -0.657   3.715
   88EH     H10 2284   3.735  -0.623   3.542
   89LA     H00 2285   3.675  -0.927   3.873
   89LA     C01 2286   3.668  -0.897   3.978
   89LA     H02 2287   3.602  -0.810   3.969
   89LA     H03 2288   3.617  -0.972   4.038
   89LA     C04 2289   3.802  -0.857   4.032
   89LA     C05 2290   3.793  -0.689   4.046
   89LA     H06 2291   3.761  -0.662   3.947
   89LA     H07 2292   3.893  -0.669   4.080
   89LA     C08 2293   3.855  -0.916   4.156
   89LA     O09 2294   3.936  -0.860   4.230
   89LA     O0A 2295   3.791  -1.031   4.189
   89LA     C0B 2296   3.765  -1.061   4.326
   89LA     H0C 2297   3.660  -1.088   4.333
   89LA     H0D 2298   3.775  -0.970   4.386
   89LA     C0E 2299   3.851  -1.172   4.393
   89LA     H0F 2300   3.956  -1.145   4.382
   89LA     H0G 2301   3.831  -1.168   4.500
   89LA     C0H 2302   3.823  -1.317   4.346
   89LA     H0I 2303   3.717  -1.342   4.359
   89LA     H0J 2304   3.840  -1.324   4.239
   89LA     C0K 2305   3.910  -1.422   4.418
   89LA     H0M 2306   4.003  -1.374   4.450
   89LA     H0N 2307   3.862  -1.455   4.510
   89LA     C0O 2308   3.951  -1.542   4.331
   89LA     H0P 2309   3.983  -1.508   4.232
   89LA     H0Q 2310   4.040  -1.587   4.376
   89LA     C0R 2311   3.845  -1.654   4.317
   89LA     H0S 2312   3.819  -1.690   4.416
   89LA     H0T 2313   3.754  -1.615   4.273
   89LA     C0U 2314   3.899  -1.770   4.231
   89LA     H0V 2315   3.901  -1.739   4.127
   89LA     H0W 2316   4.003  -1.790   4.257
   89LA     C0X 2317   3.820  -1.902   4.243
   89LA     H0Y 2318   3.713  -1.885   4.233
   89LA     H0Z 2319   3.847  -1.963   4.156
   89LA     C10 2320   3.855  -1.987   4.368
   89LA     H11 2321   3.948  -1.952   4.413
   89LA     H12 2322   3.878  -2.088   4.334
   89LA     C13 2323   3.743  -1.997   4.473
   89LA     H14 2324   3.720  -2.102   4.491
   89LA     H15 2325   3.650  -1.954   4.435
   89LA     C16 2326   3.776  -1.930   4.608
   89LA     H17 2327   3.685  -1.923   4.667
   89LA     H18 2328   3.810  -1.828   4.592
   89LA     C19 2329   3.881  -2.007   4.690
   89LA     H1A 2330   3.848  -2.108   4.713
   89LA     H1B 2331   3.900  -1.956   4.785
   89LA     H1C 2332   3.976  -2.014   4.637
   90EH     H00 2333   3.872  -0.365   4.230
   90EH     C01 2334   3.864  -0.458   4.174
   90EH     H02 2335   3.935  -0.450   4.091
   90EH     H03 2336   3.899  -0.535   4.242
   90EH     C04 2337   3.721  -0.486   4.127
   90EH     C05 2338   3.621  -0.370   4.200
   90EH     H06 2339   3.520  -0.380   4.163
   90EH     H07 2340   3.648  -0.373   4.304
   90EH     C08 2341   3.668  -0.488   3.994
   90EH     O09 2342   3.721  -0.432   3.899
   90EH     O0A 2343   3.552  -0.560   3.989
   90EH     C0B 2344   3.497  -0.635   4.101
   90EH     H0C 2345   3.474  -0.575   4.189
   90EH     H0D 2346   3.568  -0.706   4.144
   90EH     C0E 2347   3.366  -0.706   4.065
   90EH     H0F 2348   3.290  -0.632   4.087
   90EH     C0G 2349   3.343  -0.737   3.914
   90EH     H0H 2350   3.386  -0.658   3.852
   90EH     H0I 2351   3.236  -0.728   3.897
   90EH     C0J 2352   3.386  -0.874   3.858
   90EH     H0K 2353   3.473  -0.863   3.793
   90EH     H0M 2354   3.307  -0.916   3.795
   90EH     H0N 2355   3.408  -0.948   3.934
   90EH     C0O 2356   3.342  -0.827   4.159
   90EH     H0P 2357   3.268  -0.892   4.113
   90EH     H0Q 2358   3.432  -0.887   4.168
   90EH     C0R 2359   3.293  -0.788   4.299
   90EH     H0S 2360   3.221  -0.706   4.292
   90EH     H0T 2361   3.375  -0.751   4.360
   90EH     C0U 2362   3.224  -0.907   4.368
   90EH     H0V 2363   3.145  -0.944   4.303
   90EH     H0W 2364   3.295  -0.989   4.381
   90EH     C0X 2365   3.163  -0.870   4.504
   90EH     H0Y 2366   3.104  -0.954   4.542
   90EH     H0Z 2367   3.096  -0.784   4.495
   90EH     H10 2368   3.239  -0.847   4.578
   91EH     H00 2369   3.550  -0.052   4.038
   91EH     C01 2370   3.609  -0.132   4.084
   91EH     H02 2371   3.594  -0.223   4.026
   91EH     H03 2372   3.714  -0.106   4.069
   91EH     C04 2373   3.572  -0.154   4.231
   91EH     C05 2374   3.451  -0.044   4.274
   91EH     H06 2375   3.425  -0.077   4.373
   91EH     H07 2376   3.381  -0.044   4.192
   91EH     C08 2377   3.679  -0.143   4.332
   91EH     O09 2378   3.659  -0.153   4.453
   91EH     O0A 2379   3.799  -0.104   4.281
   91EH     C0B 2380   3.883  -0.012   4.353
   91EH     H0C 2381   3.945  -0.063   4.427
   91EH     H0D 2382   3.819   0.055   4.412
   91EH     C0E 2383   3.968   0.078   4.257
   91EH     H0F 2384   3.983   0.172   4.309
   91EH     C0G 2385   3.894   0.113   4.126
   91EH     H0H 2386   3.900   0.031   4.055
   91EH     H0I 2387   3.940   0.200   4.081
   91EH     C0J 2388   3.750   0.155   4.140
   91EH     H0K 2389   3.692   0.130   4.051
   91EH     H0M 2390   3.699   0.114   4.226
   91EH     H0N 2391   3.748   0.264   4.147
   91EH     C0O 2392   4.112   0.022   4.231
   91EH     H0P 2393   4.182   0.074   4.296
   91EH     H0Q 2394   4.114  -0.081   4.265
   91EH     C0R 2395   4.169   0.021   4.086
   91EH     H0S 2396   4.104  -0.038   4.020
   91EH     H0T 2397   4.262  -0.037   4.090
   91EH     C0U 2398   4.204   0.156   4.019
   91EH     H0V 2399   4.116   0.215   3.995
   91EH     H0W 2400   4.264   0.218   4.086
   91EH     C0X 2401   4.277   0.139   3.885
   91EH     H0Y 2402   4.289   0.235   3.835
   91EH     H0Z 2403   4.220   0.075   3.818
   91EH     H10 2404   4.376   0.095   3.898
   92ST     H00 2405   3.444   0.073   4.523
   92ST     C01 2406   3.478   0.151   4.456
   92ST     H02 2407   3.487   0.242   4.515
   92ST     H03 2408   3.581   0.128   4.430
   92ST     C04 2409   3.393   0.168   4.327
   92ST     C05 2410   3.267   0.276   4.361
   92ST     H06 2411   3.346   0.349   4.376
   92ST     H07 2412   3.217   0.229   4.444
   92ST     C08 2413   3.472   0.242   4.228
   92ST     O09 2414   3.458   0.229   4.107
   92ST     O0A 2415   3.554   0.337   4.288
   92ST     C0B 2416   3.603   0.452   4.219
   92ST     H0C 2417   3.617   0.426   4.114
   92ST     H0D 2418   3.529   0.532   4.218
   92ST     C0E 2419   3.736   0.505   4.278
   92ST     H0F 2420   3.781   0.578   4.210
   92ST     H0G 2421   3.807   0.423   4.283
   92ST     C0H 2422   3.725   0.567   4.418
   92ST     H0I 2423   3.822   0.555   4.466
   92ST     H0J 2424   3.655   0.508   4.477
   92ST     C0K 2425   3.691   0.718   4.425
   92ST     H0M 2426   3.779   0.776   4.397
   92ST     H0N 2427   3.616   0.742   4.350
   92ST     C0O 2428   3.639   0.759   4.564
   92ST     H0P 2429   3.640   0.675   4.633
   92ST     H0Q 2430   3.532   0.780   4.555
   92ST     C0R 2431   3.704   0.881   4.635
   92ST     H0S 2432   3.673   0.878   4.740
   92ST     H0T 2433   3.657   0.972   4.597
   92ST     C0U 2434   3.857   0.901   4.629
   92ST     H0V 2435   3.883   0.979   4.701
   92ST     H0W 2436   3.884   0.943   4.532
   92ST     C0X 2437   3.948   0.780   4.656
   92ST     H0Y 2438   3.945   0.712   4.571
   92ST     H0Z 2439   4.051   0.815   4.659
   92ST     C10 2440   3.920   0.704   4.787
   92ST     H11 2441   4.008   0.706   4.851
   92ST     H12 2442   3.843   0.755   4.844
   92ST     C13 2443   3.876   0.558   4.763
   92ST     H14 2444   3.820   0.525   4.850
   92ST     H15 2445   3.803   0.556   4.682
   92ST     C16 2446   3.989   0.458   4.731
   92ST     H17 2447   4.070   0.510   4.681
   92ST     H18 2448   4.031   0.419   4.823
   92ST     C19 2449   3.944   0.341   4.640
   92ST     H1A 2450   3.929   0.379   4.539
   92ST     H1B 2451   4.026   0.270   4.627
   92ST     C1C 2452   3.816   0.267   4.682
   92ST     H1D 2453   3.760   0.323   4.758
   92ST     H1E 2454   3.749   0.264   4.596
   92ST     C1F 2455   3.835   0.122   4.730
   92ST     H1G 2456   3.735   0.077   4.736
   92ST     H1H 2457   3.889   0.062   4.657
   92ST     C1I 2458   3.897   0.110   4.871
   92ST     H1J 2459   3.858   0.020   4.920
   92ST     H1K 2460   3.859   0.194   4.928
   92ST     C1M 2461   4.050   0.106   4.877
   92ST     H1N 2462   4.082   0.125   4.980
   92ST     H1O 2463   4.093   0.187   4.818
   92ST     C1P 2464   4.107  -0.030   4.833
   92ST     H1Q 2465   4.090  -0.104   4.912
   92ST     H1R 2466   4.053  -0.067   4.746
   92ST     C1S 2467   4.256  -0.023   4.800
   92ST     H1T 2468   4.293  -0.121   4.769
   92ST     H1U 2469   4.315   0.009   4.886
   92ST     H1V 2470   4.274   0.047   4.718
   93EH     H00 2471   3.300   0.521   4.226
   93EH     C01 2472   3.288   0.557   4.328
   93EH     H02 2473   3.384   0.555   4.379
   93EH     H03 2474   3.265   0.664   4.326
   93EH     C04 2475   3.182   0.480   4.406
   93EH     C05 2476   3.042   0.573   4.399
   93EH     H06 2477   2.995   0.541   4.490
   93EH     H07 2478   3.003   0.557   4.299
   93EH     C08 2479   3.232   0.468   4.547
   93EH     O09 2480   3.314   0.387   4.588
   93EH     O0A 2481   3.186   0.559   4.636
   93EH     C0B 2482   3.189   0.527   4.778
   93EH     H0C 2483   3.166   0.616   4.836
   93EH     H0D 2484   3.287   0.495   4.812
   93EH     C0E 2485   3.082   0.416   4.802
   93EH     H0F 2486   3.059   0.405   4.696
   93EH     C0G 2487   3.120   0.267   4.804
   93EH     H0H 2488   3.213   0.254   4.860
   93EH     H0I 2489   3.149   0.234   4.704
   93EH     C0J 2490   3.009   0.170   4.848
   93EH     H0K 2491   2.979   0.186   4.951
   93EH     H0M 2492   2.921   0.180   4.785
   93EH     H0N 2493   3.041   0.066   4.837
   93EH     C0O 2494   2.942   0.462   4.846
   93EH     H0P 2495   2.891   0.389   4.909
   93EH     H0Q 2496   2.951   0.548   4.912
   93EH     C0R 2497   2.855   0.501   4.723
   93EH     H0S 2498   2.902   0.591   4.683
   93EH     H0T 2499   2.759   0.538   4.760
   93EH     C0U 2500   2.839   0.395   4.607
   93EH     H0V 2501   2.933   0.358   4.564
   93EH     H0W 2502   2.798   0.299   4.638
   93EH     C0X 2503   2.766   0.443   4.483
   93EH     H0Y 2504   2.797   0.380   4.399
   93EH     H0Z 2505   2.789   0.547   4.457
   93EH     H10 2506   2.657   0.439   4.490
   94ST     H00 2507   3.125   0.830   4.350
   94ST     C01 2508   3.020   0.852   4.333
   94ST     H02 2509   3.009   0.957   4.360
   94ST     H03 2510   2.998   0.841   4.227
   94ST     C04 2511   2.929   0.767   4.421
   94ST     C05 2512   2.776   0.832   4.395
   94ST     H06 2513   2.793   0.908   4.470
   94ST     H07 2514   2.715   0.754   4.440
   94ST     C08 2515   2.979   0.803   4.562
   94ST     O09 2516   3.099   0.809   4.589
   94ST     O0A 2517   2.887   0.837   4.665
   94ST     C0B 2518   2.922   0.926   4.779
   94ST     H0C 2519   3.016   0.977   4.757
   94ST     H0D 2520   2.850   1.008   4.779
   94ST     C0E 2521   2.935   0.869   4.927
   94ST     H0F 2522   3.042   0.863   4.947
   94ST     H0G 2523   2.902   0.765   4.929
   94ST     C0H 2524   2.879   0.943   5.056
   94ST     H0I 2525   2.957   1.003   5.103
   94ST     H0J 2526   2.861   0.866   5.131
   94ST     C0K 2527   2.748   1.026   5.050
   94ST     H0M 2528   2.717   1.040   4.947
   94ST     H0N 2529   2.669   0.969   5.098
   94ST     C0O 2530   2.755   1.164   5.124
   94ST     H0P 2531   2.855   1.206   5.117
   94ST     H0Q 2532   2.737   1.149   5.230
   94ST     C0R 2533   2.655   1.269   5.072
   94ST     H0S 2534   2.653   1.354   5.141
   94ST     H0T 2535   2.553   1.232   5.074
   94ST     C0U 2536   2.688   1.322   4.932
   94ST     H0V 2537   2.602   1.378   4.895
   94ST     H0W 2538   2.700   1.241   4.860
   94ST     C0X 2539   2.814   1.411   4.930
   94ST     H0Y 2540   2.847   1.435   5.031
   94ST     H0Z 2541   2.895   1.354   4.885
   94ST     C10 2542   2.794   1.541   4.851
   94ST     H11 2543   2.891   1.586   4.830
   94ST     H12 2544   2.752   1.517   4.753
   94ST     C13 2545   2.704   1.645   4.921
   94ST     H14 2546   2.682   1.722   4.847
   94ST     H15 2547   2.607   1.602   4.947
   94ST     C16 2548   2.768   1.716   5.043
   94ST     H17 2549   2.876   1.722   5.031
   94ST     H18 2550   2.732   1.818   5.041
   94ST     C19 2551   2.734   1.654   5.180
   94ST     H1A 2552   2.640   1.599   5.173
   94ST     H1B 2553   2.809   1.580   5.208
   94ST     C1C 2554   2.716   1.757   5.295
   94ST     H1D 2555   2.629   1.820   5.275
   94ST     H1E 2556   2.689   1.700   5.384
   94ST     C1F 2557   2.839   1.843   5.330
   94ST     H1G 2558   2.828   1.874   5.434
   94ST     H1H 2559   2.930   1.783   5.328
   94ST     C1I 2560   2.853   1.972   5.247
   94ST     H1J 2561   2.851   2.059   5.312
   94ST     H1K 2562   2.766   1.985   5.182
   94ST     C1M 2563   2.980   1.976   5.161
   94ST     H1N 2564   2.962   2.038   5.073
   94ST     H1O 2565   3.003   1.877   5.122
   94ST     C1P 2566   3.102   2.031   5.236
   94ST     H1Q 2567   3.084   2.136   5.262
   94ST     H1R 2568   3.115   1.978   5.331
   94ST     C1S 2569   3.231   2.021   5.154
   94ST     H1T 2570   3.315   2.065   5.207
   94ST     H1U 2571   3.221   2.072   5.058
   94ST     H1V 2572   3.256   1.916   5.134
   95EH     H00 2573   2.520   0.781   4.302
   95EH     C01 2574   2.505   0.860   4.375
   95EH     H02 2575   2.403   0.897   4.367
   95EH     H03 2576   2.507   0.798   4.464
   95EH     C04 2577   2.607   0.978   4.375
   95EH     C05 2578   2.543   1.105   4.282
   95EH     H06 2579   2.609   1.111   4.197
   95EH     H07 2580   2.564   1.190   4.345
   95EH     C08 2581   2.607   1.022   4.521
   95EH     O09 2582   2.674   1.116   4.562
   95EH     O0A 2583   2.517   0.953   4.615
   95EH     C0B 2584   2.476   1.001   4.749
   95EH     H0C 2585   2.398   1.076   4.735
   95EH     H0D 2586   2.560   1.057   4.790
   95EH     C0E 2587   2.426   0.899   4.863
   95EH     H0F 2588   2.511   0.833   4.879
   95EH     C0G 2589   2.402   0.965   5.004
   95EH     H0H 2590   2.474   1.045   5.021
   95EH     H0I 2591   2.426   0.892   5.081
   95EH     C0J 2592   2.261   1.021   5.041
   95EH     H0K 2593   2.254   1.037   5.148
   95EH     H0M 2594   2.178   0.954   5.017
   95EH     H0N 2595   2.240   1.117   4.993
   95EH     C0O 2596   2.305   0.804   4.832
   95EH     H0P 2597   2.218   0.865   4.808
   95EH     H0Q 2598   2.328   0.747   4.742
   95EH     C0R 2599   2.266   0.703   4.947
   95EH     H0S 2600   2.260   0.753   5.044
   95EH     H0T 2601   2.345   0.629   4.961
   95EH     C0U 2602   2.130   0.634   4.930
   95EH     H0V 2603   2.095   0.599   5.028
   95EH     H0W 2604   2.054   0.704   4.896
   95EH     C0X 2605   2.134   0.512   4.838
   95EH     H0Y 2606   2.034   0.472   4.819
   95EH     H0Z 2607   2.191   0.432   4.884
   95EH     H10 2608   2.179   0.537   4.742
   96ST     H00 2609   2.202   1.229   4.335
   96ST     C01 2610   2.278   1.157   4.304
   96ST     H02 2611   2.339   1.134   4.391
   96ST     H03 2612   2.226   1.065   4.276
   96ST     C04 2613   2.364   1.207   4.187
   96ST     C05 2614   2.293   1.354   4.128
   96ST     H06 2615   2.371   1.387   4.061
   96ST     H07 2616   2.267   1.408   4.218
   96ST     C08 2617   2.392   1.108   4.081
   96ST     O09 2618   2.377   1.126   3.961
   96ST     O0A 2619   2.436   0.987   4.134
   96ST     C0B 2620   2.460   0.864   4.060
   96ST     H0C 2621   2.388   0.794   4.102
   96ST     H0D 2622   2.434   0.876   3.955
   96ST     C0E 2623   2.605   0.802   4.074
   96ST     H0F 2624   2.655   0.837   4.164
   96ST     H0G 2625   2.668   0.850   4.000
   96ST     C0H 2626   2.629   0.646   4.063
   96ST     H0I 2627   2.726   0.626   4.109
   96ST     H0J 2628   2.648   0.625   3.958
   96ST     C0K 2629   2.527   0.537   4.113
   96ST     H0M 2630   2.428   0.577   4.130
   96ST     H0N 2631   2.516   0.466   4.031
   96ST     C0O 2632   2.571   0.453   4.236
   96ST     H0P 2633   2.534   0.501   4.326
   96ST     H0Q 2634   2.680   0.459   4.240
   96ST     C0R 2635   2.541   0.300   4.241
   96ST     H0S 2636   2.585   0.257   4.331
   96ST     H0T 2637   2.594   0.251   4.160
   96ST     C0U 2638   2.393   0.254   4.236
   96ST     H0V 2639   2.391   0.147   4.219
   96ST     H0W 2640   2.348   0.297   4.147
   96ST     C0X 2641   2.307   0.288   4.360
   96ST     H0Y 2642   2.352   0.370   4.418
   96ST     H0Z 2643   2.215   0.331   4.321
   96ST     C10 2644   2.264   0.170   4.450
   96ST     H11 2645   2.159   0.182   4.476
   96ST     H12 2646   2.267   0.076   4.394
   96ST     C13 2647   2.341   0.149   4.582
   96ST     H14 2648   2.309   0.052   4.622
   96ST     H15 2649   2.447   0.133   4.562
   96ST     C16 2650   2.312   0.252   4.694
   96ST     H17 2651   2.209   0.288   4.684
   96ST     H18 2652   2.314   0.202   4.791
   96ST     C19 2653   2.406   0.372   4.702
   96ST     H1A 2654   2.390   0.437   4.617
   96ST     H1B 2655   2.385   0.435   4.789
   96ST     C1C 2656   2.554   0.338   4.708
   96ST     H1D 2657   2.584   0.270   4.628
   96ST     H1E 2658   2.596   0.435   4.683
   96ST     C1F 2659   2.620   0.303   4.842
   96ST     H1G 2660   2.725   0.279   4.824
   96ST     H1H 2661   2.628   0.395   4.900
   96ST     C1I 2662   2.571   0.183   4.922
   96ST     H1J 2663   2.657   0.119   4.943
   96ST     H1K 2664   2.505   0.120   4.862
   96ST     C1M 2665   2.508   0.222   5.056
   96ST     H1N 2666   2.494   0.131   5.114
   96ST     H1O 2667   2.407   0.262   5.039
   96ST     C1P 2668   2.591   0.322   5.140
   96ST     H1Q 2669   2.595   0.288   5.244
   96ST     H1R 2670   2.695   0.322   5.107
   96ST     C1S 2671   2.535   0.465   5.138
   96ST     H1T 2672   2.604   0.535   5.185
   96ST     H1U 2673   2.440   0.471   5.190
   96ST     H1V 2674   2.517   0.503   5.037
   97EH     H00 2675   2.308   1.490   3.886
   97EH     C01 2676   2.213   1.436   3.885
   97EH     H02 2677   2.157   1.459   3.795
   97EH     H03 2678   2.234   1.329   3.883
   97EH     C04 2679   2.131   1.472   4.006
   97EH     C05 2680   2.051   1.623   3.968
   97EH     H06 2681   1.995   1.641   4.059
   97EH     H07 2682   2.131   1.689   3.937
   97EH     C08 2683   2.028   1.373   4.035
   97EH     O09 2684   1.908   1.391   4.016
   97EH     O0A 2685   2.079   1.256   4.079
   97EH     C0B 2686   2.000   1.135   4.076
   97EH     H0C 2687   2.066   1.052   4.104
   97EH     H0D 2688   1.976   1.117   3.971
   97EH     C0E 2689   1.870   1.131   4.161
   97EH     H0F 2690   1.805   1.211   4.126
   97EH     C0G 2691   1.785   1.005   4.134
   97EH     H0H 2692   1.781   0.985   4.027
   97EH     H0I 2693   1.681   1.027   4.162
   97EH     C0J 2694   1.827   0.877   4.208
   97EH     H0K 2695   1.762   0.794   4.180
   97EH     H0M 2696   1.820   0.888   4.316
   97EH     H0N 2697   1.930   0.848   4.184
   97EH     C0O 2698   1.893   1.156   4.312
   97EH     H0P 2699   1.805   1.123   4.368
   97EH     H0Q 2700   1.976   1.095   4.347
   97EH     C0R 2701   1.917   1.304   4.345
   97EH     H0S 2702   1.833   1.364   4.310
   97EH     H0T 2703   2.004   1.340   4.290
   97EH     C0U 2704   1.943   1.332   4.493
   97EH     H0V 2705   1.851   1.321   4.550
   97EH     H0W 2706   2.013   1.258   4.533
   97EH     C0X 2707   2.002   1.472   4.512
   97EH     H0Y 2708   2.019   1.494   4.618
   97EH     H0Z 2709   1.936   1.549   4.472
   97EH     H10 2710   2.098   1.481   4.462
   98LA     H00 2711   1.685   1.699   3.872
   98LA     C01 2712   1.782   1.678   3.917
   98LA     H02 2713   1.778   1.703   4.023
   98LA     H03 2714   1.794   1.570   3.908
   98LA     C04 2715   1.894   1.751   3.844
   98LA     C05 2716   1.824   1.907   3.806
   98LA     H06 2717   1.780   1.946   3.897
   98LA     H07 2718   1.904   1.948   3.746
   98LA     C08 2719   1.942   1.684   3.722
   98LA     O09 2720   1.921   1.566   3.695
   98LA     O0A 2721   2.020   1.759   3.642
   98LA     C0B 2722   1.979   1.779   3.507
   98LA     H0C 2723   2.014   1.880   3.485
   98LA     H0D 2724   1.871   1.786   3.506
   98LA     C0E 2725   2.022   1.691   3.385
   98LA     H0F 2726   1.931   1.665   3.331
   98LA     H0G 2727   2.075   1.754   3.315
   98LA     C0H 2728   2.100   1.559   3.405
   98LA     H0I 2729   2.112   1.537   3.511
   98LA     H0J 2730   2.036   1.477   3.372
   98LA     C0K 2731   2.232   1.550   3.324
   98LA     H0M 2732   2.218   1.478   3.243
   98LA     H0N 2733   2.254   1.643   3.273
   98LA     C0O 2734   2.358   1.508   3.402
   98LA     H0P 2735   2.343   1.413   3.452
   98LA     H0Q 2736   2.438   1.490   3.330
   98LA     C0R 2737   2.408   1.616   3.500
   98LA     H0S 2738   2.517   1.622   3.498
   98LA     H0T 2739   2.371   1.714   3.469
   98LA     C0U 2740   2.364   1.587   3.644
   98LA     H0V 2741   2.257   1.565   3.643
   98LA     H0W 2742   2.413   1.497   3.681
   98LA     C0X 2743   2.381   1.705   3.738
   98LA     H0Y 2744   2.363   1.798   3.684
   98LA     H0Z 2745   2.303   1.703   3.814
   98LA     C10 2746   2.516   1.705   3.811
   98LA     H11 2747   2.596   1.673   3.744
   98LA     H12 2748   2.513   1.629   3.890
   98LA     C13 2749   2.547   1.842   3.873
   98LA     H14 2750   2.626   1.832   3.948
   98LA     H15 2751   2.460   1.877   3.927
   98LA     C16 2752   2.589   1.946   3.768
   98LA     H17 2753   2.585   2.046   3.812
   98LA     H18 2754   2.519   1.949   3.685
   98LA     C19 2755   2.731   1.922   3.713
   98LA     H1A 2756   2.805   1.928   3.792
   98LA     H1B 2757   2.756   1.997   3.637
   98LA     H1C 2758   2.740   1.825   3.666
   99EH     H00 2759   1.510   1.963   3.592
   99EH     C01 2760   1.590   1.937   3.661
   99EH     H02 2761   1.546   1.901   3.754
   99EH     H03 2762   1.644   1.855   3.613
   99EH     C04 2763   1.683   2.055   3.685
   99EH     C05 2764   1.579   2.195   3.678
   99EH     H06 2765   1.629   2.231   3.589
   99EH     H07 2766   1.480   2.157   3.696
   99EH     C08 2767   1.789   2.077   3.583
   99EH     O09 2768   1.899   2.126   3.607
   99EH     O0A 2769   1.748   2.047   3.453
   99EH     C0B 2770   1.844   2.037   3.345
   99EH     H0C 2771   1.845   1.931   3.319
   99EH     H0D 2772   1.944   2.061   3.378
   99EH     C0E 2773   1.818   2.114   3.211
   99EH     H0F 2774   1.716   2.093   3.180
   99EH     C0G 2775   1.827   2.266   3.230
   99EH     H0H 2776   1.752   2.289   3.304
   99EH     H0I 2777   1.798   2.318   3.139
   99EH     C0J 2778   1.958   2.322   3.285
   99EH     H0K 2779   1.960   2.313   3.394
   99EH     H0M 2780   1.966   2.429   3.262
   99EH     H0N 2781   2.047   2.272   3.246
   99EH     C0O 2782   1.912   2.064   3.097
   99EH     H0P 2783   2.014   2.055   3.134
   99EH     H0Q 2784   1.882   1.962   3.074
   99EH     C0R 2785   1.913   2.143   2.963
   99EH     H0S 2786   1.817   2.190   2.944
   99EH     H0T 2787   1.924   2.071   2.882
   99EH     C0U 2788   2.027   2.247   2.950
   99EH     H0V 2789   1.986   2.348   2.955
   99EH     H0W 2790   2.096   2.240   3.034
   99EH     C0X 2791   2.110   2.233   2.821
   99EH     H0Y 2792   2.192   2.305   2.820
   99EH     H0Z 2793   2.050   2.250   2.732
   99EH     H10 2794   2.154   2.133   2.814
  100EH     H00 2795   1.620   2.440   3.737
  100EH     C01 2796   1.602   2.458   3.631
  100EH     H02 2797   1.598   2.567   3.619
  100EH     H03 2798   1.692   2.430   3.577
  100EH     C04 2799   1.475   2.382   3.587
  100EH     C05 2800   1.355   2.502   3.596
  100EH     H06 2801   1.414   2.573   3.540
  100EH     H07 2802   1.280   2.441   3.548
  100EH     C08 2803   1.479   2.354   3.439
  100EH     O09 2804   1.573   2.397   3.373
  100EH     O0A 2805   1.368   2.295   3.369
  100EH     C0B 2806   1.374   2.291   3.219
  100EH     H0C 2807   1.443   2.212   3.191
  100EH     H0D 2808   1.427   2.382   3.191
  100EH     C0E 2809   1.247   2.289   3.120
  100EH     H0F 2810   1.163   2.326   3.178
  100EH     C0G 2811   1.264   2.390   3.001
  100EH     H0H 2812   1.314   2.481   3.034
  100EH     H0I 2813   1.165   2.426   2.971
  100EH     C0J 2814   1.334   2.340   2.872
  100EH     H0K 2815   1.348   2.421   2.800
  100EH     H0M 2816   1.275   2.265   2.818
  100EH     H0N 2817   1.432   2.296   2.892
  100EH     C0O 2818   1.208   2.149   3.060
  100EH     H0P 2819   1.293   2.111   3.004
  100EH     H0Q 2820   1.195   2.077   3.141
  100EH     C0R 2821   1.080   2.142   2.968
  100EH     H0S 2822   1.056   2.240   2.926
  100EH     H0T 2823   0.994   2.119   3.030
  100EH     C0U 2824   1.088   2.044   2.848
  100EH     H0V 2825   1.109   2.099   2.757
  100EH     H0W 2826   1.171   1.974   2.860
  100EH     C0X 2827   0.960   1.962   2.824
  100EH     H0Y 2828   0.969   1.899   2.736
  100EH     H0Z 2829   0.872   2.025   2.809
  100EH     H10 2830   0.939   1.895   2.908
  101ST     H00 2831   1.147   2.541   3.693
  101ST     C01 2832   1.107   2.587   3.603
  101ST     H02 2833   1.067   2.510   3.537
  101ST     H03 2834   1.019   2.641   3.639
  101ST     C04 2835   1.218   2.670   3.534
  101ST     C05 2836   1.169   2.827   3.554
  101ST     H06 2837   1.066   2.799   3.535
  101ST     H07 2838   1.190   2.844   3.659
  101ST     C08 2839   1.213   2.653   3.387
  101ST     O09 2840   1.281   2.573   3.324
  101ST     O0A 2841   1.122   2.738   3.324
  101ST     C0B 2842   1.133   2.776   3.186
  101ST     H0C 2843   1.236   2.811   3.172
  101ST     H0D 2844   1.121   2.691   3.119
  101ST     C0E 2845   1.039   2.894   3.145
  101ST     H0F 2846   1.067   2.933   3.047
  101ST     H0G 2847   1.061   2.977   3.212
  101ST     C0H 2848   0.886   2.868   3.148
  101ST     H0I 2849   0.833   2.958   3.179
  101ST     H0J 2850   0.866   2.794   3.225
  101ST     C0K 2851   0.822   2.816   3.019
  101ST     H0M 2852   0.882   2.730   2.987
  101ST     H0N 2853   0.723   2.775   3.042
  101ST     C0O 2854   0.805   2.921   2.907
  101ST     H0P 2855   0.893   2.984   2.902
  101ST     H0Q 2856   0.723   2.988   2.933
  101ST     C0R 2857   0.777   2.859   2.768
  101ST     H0S 2858   0.777   2.938   2.693
  101ST     H0T 2859   0.675   2.820   2.766
  101ST     C0U 2860   0.873   2.747   2.725
  101ST     H0V 2861   0.853   2.719   2.622
  101ST     H0W 2862   0.847   2.657   2.782
  101ST     C0X 2863   1.024   2.775   2.744
  101ST     H0Y 2864   1.046   2.813   2.844
  101ST     H0Z 2865   1.075   2.678   2.740
  101ST     C10 2866   1.087   2.865   2.636
  101ST     H11 2867   1.192   2.839   2.624
  101ST     H12 2868   1.040   2.844   2.540
  101ST     C13 2869   1.075   3.015   2.667
  101ST     H14 2870   1.081   3.071   2.574
  101ST     H15 2871   0.977   3.037   2.708
  101ST     C16 2872   1.186   3.067   2.760
  101ST     H17 2873   1.215   2.989   2.831
  101ST     H18 2874   1.276   3.084   2.701
  101ST     C19 2875   1.152   3.193   2.843
  101ST     H1A 2876   1.108   3.159   2.936
  101ST     H1B 2877   1.245   3.241   2.873
  101ST     C1C 2878   1.055   3.297   2.782
  101ST     H1D 2879   0.993   3.257   2.702
  101ST     H1E 2880   0.985   3.323   2.861
  101ST     C1F 2881   1.118   3.430   2.737
  101ST     H1G 2882   1.038   3.504   2.732
  101ST     H1H 2883   1.186   3.468   2.814
  101ST     C1I 2884   1.188   3.428   2.600
  101ST     H1J 2885   1.185   3.528   2.556
  101ST     H1K 2886   1.132   3.364   2.532
  101ST     C1M 2887   1.335   3.383   2.606
  101ST     H1N 2888   1.371   3.363   2.505
  101ST     H1O 2889   1.340   3.287   2.658
  101ST     C1P 2890   1.429   3.485   2.673
  101ST     H1Q 2891   1.468   3.554   2.599
  101ST     H1R 2892   1.376   3.546   2.746
  101ST     C1S 2893   1.546   3.416   2.746
  101ST     H1T 2894   1.612   3.489   2.792
  101ST     H1U 2895   1.604   3.354   2.678
  101ST     H1V 2896   1.509   3.351   2.826
  102EH     H00 2897   1.045   3.149   3.691
  102EH     C01 2898   1.081   3.048   3.668
  102EH     H02 2899   1.190   3.058   3.674
  102EH     H03 2900   1.044   2.985   3.748
  102EH     C04 2901   1.035   2.996   3.532
  102EH     C05 2902   1.009   3.128   3.446
  102EH     H06 2903   0.964   3.101   3.352
  102EH     H07 2904   1.103   3.182   3.445
  102EH     C08 2905   0.898   2.934   3.533
  102EH     O09 2906   0.859   2.849   3.456
  102EH     O0A 2907   0.809   2.995   3.623
  102EH     C0B 2908   0.663   2.975   3.622
  102EH     H0C 2909   0.636   2.918   3.711
  102EH     H0D 2910   0.633   2.915   3.536
  102EH     C0E 2911   0.583   3.111   3.620
  102EH     H0F 2912   0.644   3.175   3.684
  102EH     C0G 2913   0.583   3.164   3.477
  102EH     H0H 2914   0.685   3.149   3.444
  102EH     H0I 2915   0.561   3.271   3.480
  102EH     C0J 2916   0.495   3.100   3.368
  102EH     H0K 2917   0.543   3.012   3.326
  102EH     H0M 2918   0.397   3.070   3.404
  102EH     H0N 2919   0.481   3.169   3.286
  102EH     C0O 2920   0.443   3.131   3.686
  102EH     H0P 2921   0.363   3.098   3.618
  102EH     H0Q 2922   0.434   3.069   3.775
  102EH     C0R 2923   0.415   3.280   3.728
  102EH     H0S 2924   0.447   3.348   3.649
  102EH     H0T 2925   0.478   3.306   3.813
  102EH     C0U 2926   0.268   3.316   3.759
  102EH     H0V 2927   0.232   3.387   3.684
  102EH     H0W 2928   0.203   3.229   3.749
  102EH     C0X 2929   0.246   3.381   3.897
  102EH     H0Y 2930   0.141   3.405   3.912
  102EH     H0Z 2931   0.302   3.474   3.908
  102EH     H10 2932   0.275   3.313   3.977
  103LA     H00 2933   0.739   3.332   3.587
  103LA     C01 2934   0.845   3.306   3.587
  103LA     H02 2935   0.886   3.384   3.652
  103LA     H03 2936   0.856   3.213   3.642
  103LA     C04 2937   0.904   3.305   3.446
  103LA     C05 2938   0.798   3.361   3.348
  103LA     H06 2939   0.850   3.404   3.263
  103LA     H07 2940   0.732   3.285   3.310
  103LA     C08 2941   1.016   3.406   3.457
  103LA     O09 2942   1.103   3.401   3.544
  103LA     O0A 2943   1.013   3.514   3.370
  103LA     C0B 2944   1.004   3.654   3.410
  103LA     H0C 2945   0.946   3.673   3.500
  103LA     H0D 2946   0.938   3.684   3.328
  103LA     C0E 2947   1.110   3.765   3.381
  103LA     H0F 2948   1.197   3.722   3.332
  103LA     H0G 2949   1.072   3.830   3.302
  103LA     C0H 2950   1.149   3.861   3.497
  103LA     H0I 2951   1.232   3.924   3.467
  103LA     H0J 2952   1.066   3.930   3.515
  103LA     C0K 2953   1.180   3.794   3.631
  103LA     H0M 2954   1.173   3.869   3.709
  103LA     H0N 2955   1.102   3.722   3.655
  103LA     C0O 2956   1.318   3.726   3.644
  103LA     H0P 2957   1.393   3.800   3.672
  103LA     H0Q 2958   1.311   3.659   3.729
  103LA     C0R 2959   1.367   3.645   3.522
  103LA     H0S 2960   1.418   3.556   3.559
  103LA     H0T 2961   1.281   3.600   3.471
  103LA     C0U 2962   1.467   3.720   3.430
  103LA     H0V 2963   1.471   3.825   3.460
  103LA     H0W 2964   1.567   3.681   3.451
  103LA     C0X 2965   1.445   3.719   3.276
  103LA     H0Y 2966   1.373   3.797   3.250
  103LA     H0Z 2967   1.537   3.753   3.229
  103LA     C10 2968   1.406   3.584   3.213
  103LA     H11 2969   1.348   3.524   3.284
  103LA     H12 2970   1.496   3.526   3.196
  103LA     C13 2971   1.327   3.597   3.081
  103LA     H14 2972   1.375   3.536   3.004
  103LA     H15 2973   1.333   3.699   3.043
  103LA     C16 2974   1.179   3.555   3.089
  103LA     H17 2975   1.130   3.574   2.993
  103LA     H18 2976   1.124   3.619   3.158
  103LA     C19 2977   1.158   3.408   3.128
  103LA     H1A 2978   1.221   3.342   3.068
  103LA     H1B 2979   1.054   3.378   3.114
  103LA     H1C 2980   1.183   3.389   3.232
  104EH     H00 2981   0.599   3.482   3.560
  104EH     C01 2982   0.657   3.543   3.491
  104EH     H02 2983   0.605   3.639   3.497
  104EH     H03 2984   0.756   3.563   3.531
  104EH     C04 2985   0.660   3.497   3.345
  104EH     C05 2986   0.519   3.450   3.308
  104EH     H06 2987   0.516   3.535   3.241
  104EH     H07 2988   0.458   3.442   3.396
  104EH     C08 2989   0.710   3.632   3.275
  104EH     O09 2990   0.723   3.638   3.153
  104EH     O0A 2991   0.734   3.769   3.355
  104EH     C0B 2992   0.748   3.918   3.305
  104EH     H0C 2993   0.646   3.956   3.313
  104EH     H0D 2994   0.764   3.914   3.197
  104EH     C0E 2995   0.840   4.051   3.362
  104EH     H0F 2996   0.871   4.021   3.462
  104EH     C0G 2997   0.971   4.079   3.278
  104EH     H0H 2998   0.984   4.001   3.203
  104EH     H0I 2999   1.057   4.071   3.345
  104EH     C0J 3000   0.996   4.214   3.205
  104EH     H0K 3001   1.081   4.207   3.136
  104EH     H0M 3002   1.027   4.293   3.273
  104EH     H0N 3003   0.912   4.251   3.146
  104EH     C0O 3004   0.779   4.202   3.392
  104EH     H0P 3005   0.753   4.251   3.299
  104EH     H0Q 3006   0.683   4.192   3.442
  104EH     C0R 3007   0.862   4.311   3.480
  104EH     H0S 3008   0.961   4.273   3.505
  104EH     H0T 3009   0.813   4.320   3.577
  104EH     C0U 3010   0.882   4.462   3.432
  104EH     H0V 3011   0.956   4.469   3.352
  104EH     H0W 3012   0.791   4.503   3.389
  104EH     C0X 3013   0.932   4.565   3.538
  104EH     H0Y 3014   0.966   4.657   3.491
  104EH     H0Z 3015   1.017   4.530   3.597
  104EH     H10 3016   0.854   4.596   3.608
  105LA     H00 3017   0.566   3.378   3.102
  105LA     C01 3018   0.473   3.426   3.071
  105LA     H02 3019   0.499   3.522   3.026
  105LA     H03 3020   0.434   3.367   2.989
  105LA     C04 3021   0.376   3.441   3.190
  105LA     C05 3022   0.263   3.336   3.171
  105LA     H06 3023   0.249   3.326   3.065
  105LA     H07 3024   0.199   3.403   3.227
  105LA     C08 3025   0.323   3.587   3.177
  105LA     O09 3026   0.212   3.610   3.131
  105LA     O0A 3027   0.402   3.706   3.201
  105LA     C0B 3028   0.373   3.832   3.127
  105LA     H0C 3029   0.274   3.829   3.080
  105LA     H0D 3030   0.441   3.829   3.042
  105LA     C0E 3031   0.388   3.977   3.190
  105LA     H0F 3032   0.393   3.971   3.299
  105LA     H0G 3033   0.484   4.018   3.159
  105LA     C0H 3034   0.277   4.080   3.148
  105LA     H0I 3035   0.263   4.078   3.040
  105LA     H0J 3036   0.182   4.046   3.191
  105LA     C0K 3037   0.296   4.231   3.188
  105LA     H0M 3038   0.351   4.235   3.281
  105LA     H0N 3039   0.359   4.282   3.115
  105LA     C0O 3040   0.166   4.314   3.209
  105LA     H0P 3041   0.095   4.260   3.271
  105LA     H0Q 3042   0.193   4.401   3.269
  105LA     C0R 3043   0.094   4.372   3.085
  105LA     H0S 3044   0.020   4.444   3.120
  105LA     H0T 3045   0.163   4.433   3.026
  105LA     C0U 3046   0.019   4.270   2.998
  105LA     H0V 3047   0.035   4.169   3.037
  105LA     H0W 3048  -0.088   4.286   3.009
  105LA     C0X 3049   0.059   4.272   2.848
  105LA     H0Y 3050   0.137   4.345   2.829
  105LA     H0Z 3051   0.106   4.176   2.826
  105LA     C10 3052  -0.059   4.291   2.750
  105LA     H11 3053  -0.156   4.280   2.798
  105LA     H12 3054  -0.055   4.210   2.677
  105LA     C13 3055  -0.053   4.423   2.670
  105LA     H14 3056  -0.121   4.416   2.585
  105LA     H15 3057   0.046   4.436   2.626
  105LA     C16 3058  -0.089   4.549   2.751
  105LA     H17 3059  -0.075   4.636   2.687
  105LA     H18 3060  -0.020   4.561   2.834
  105LA     C19 3061  -0.234   4.550   2.802
  105LA     H1A 3062  -0.273   4.651   2.808
  105LA     H1B 3063  -0.241   4.505   2.901
  105LA     H1C 3064  -0.301   4.494   2.736
  106ST     H00 3065   0.128   3.273   3.421
  106ST     C01 3066   0.163   3.209   3.340
  106ST     H02 3067   0.269   3.230   3.335
  106ST     H03 3068   0.149   3.105   3.370
  106ST     C04 3069   0.100   3.246   3.206
  106ST     C05 3070   0.035   3.131   3.119
  106ST     H06 3071   0.126   3.072   3.115
  106ST     H07 3072  -0.010   3.182   3.035
  106ST     C08 3073   0.029   3.380   3.201
  106ST     O09 3074   0.006   3.435   3.093
  106ST     O0A 3075  -0.005   3.448   3.324
  106ST     C0B 3076  -0.086   3.573   3.334
  106ST     H0C 3077  -0.169   3.567   3.263
  106ST     H0D 3078  -0.026   3.656   3.297
  106ST     C0E 3079  -0.143   3.613   3.479
  106ST     H0F 3080  -0.069   3.670   3.536
  106ST     H0G 3081  -0.151   3.519   3.534
  106ST     C0H 3082  -0.287   3.680   3.500
  106ST     H0I 3083  -0.337   3.626   3.580
  106ST     H0J 3084  -0.349   3.655   3.413
  106ST     C0K 3085  -0.311   3.833   3.533
  106ST     H0M 3086  -0.245   3.895   3.472
  106ST     H0N 3087  -0.412   3.853   3.498
  106ST     C0O 3088  -0.317   3.877   3.683
  106ST     H0P 3089  -0.227   3.841   3.733
  106ST     H0Q 3090  -0.395   3.818   3.731
  106ST     C0R 3091  -0.339   4.025   3.735
  106ST     H0S 3092  -0.272   4.041   3.819
  106ST     H0T 3093  -0.437   4.027   3.783
  106ST     C0U 3094  -0.335   4.155   3.649
  106ST     H0V 3095  -0.339   4.239   3.719
  106ST     H0W 3096  -0.430   4.167   3.597
  106ST     C0X 3097  -0.218   4.181   3.552
  106ST     H0Y 3098  -0.184   4.090   3.502
  106ST     H0Z 3099  -0.257   4.244   3.473
  106ST     C10 3100  -0.097   4.256   3.612
  106ST     H11 3101  -0.036   4.296   3.530
  106ST     H12 3102  -0.132   4.344   3.666
  106ST     C13 3103  -0.008   4.172   3.703
  106ST     H14 3104   0.062   4.239   3.754
  106ST     H15 3105  -0.069   4.130   3.784
  106ST     C16 3106   0.077   4.065   3.631
  106ST     H17 3107   0.074   4.083   3.524
  106ST     H18 3108   0.181   4.079   3.659
  106ST     C19 3109   0.036   3.918   3.656
  106ST     H1A 3110  -0.061   3.905   3.609
  106ST     H1B 3111   0.102   3.852   3.599
  106ST     C1C 3112   0.028   3.870   3.804
  106ST     H1D 3113  -0.009   3.948   3.870
  106ST     H1E 3114  -0.046   3.791   3.810
  106ST     C1F 3115   0.152   3.805   3.866
  106ST     H1G 3116   0.127   3.786   3.970
  106ST     H1H 3117   0.167   3.705   3.825
  106ST     C1I 3118   0.281   3.888   3.864
  106ST     H1J 3119   0.339   3.861   3.951
  106ST     H1K 3120   0.256   3.994   3.877
  106ST     C1M 3121   0.369   3.869   3.739
  106ST     H1N 3122   0.462   3.923   3.757
  106ST     H1O 3123   0.325   3.917   3.651
  106ST     C1P 3124   0.403   3.722   3.706
  106ST     H1Q 3125   0.509   3.717   3.680
  106ST     H1R 3126   0.393   3.660   3.795
  106ST     C1S 3127   0.320   3.665   3.590
  106ST     H1T 3128   0.351   3.563   3.565
  106ST     H1U 3129   0.330   3.725   3.500
  106ST     H1V 3130   0.213   3.659   3.614
  107ST     H00 3131  -0.063   2.809   3.251
  107ST     C01 3132  -0.060   2.917   3.242
  107ST     H02 3133  -0.130   2.958   3.316
  107ST     H03 3134   0.040   2.944   3.276
  107ST     C04 3135  -0.081   2.962   3.096
  107ST     C05 3136  -0.222   2.919   3.035
  107ST     H06 3137  -0.225   2.961   2.935
  107ST     H07 3138  -0.299   2.941   3.107
  107ST     C08 3139   0.024   2.909   3.009
  107ST     O09 3140   0.134   2.865   3.043
  107ST     O0A 3141  -0.011   2.918   2.883
  107ST     C0B 3142   0.045   3.012   2.798
  107ST     H0C 3143   0.129   3.066   2.842
  107ST     H0D 3144   0.087   2.952   2.717
  107ST     C0E 3145  -0.071   3.101   2.747
  107ST     H0F 3146  -0.156   3.038   2.721
  107ST     H0G 3147  -0.036   3.138   2.651
  107ST     C0H 3148  -0.119   3.226   2.830
  107ST     H0I 3149  -0.035   3.283   2.869
  107ST     H0J 3150  -0.148   3.294   2.750
  107ST     C0K 3151  -0.249   3.220   2.925
  107ST     H0M 3152  -0.309   3.293   2.871
  107ST     H0N 3153  -0.315   3.134   2.907
  107ST     C0O 3154  -0.262   3.278   3.073
  107ST     H0P 3155  -0.203   3.368   3.089
  107ST     H0Q 3156  -0.362   3.321   3.064
  107ST     C0R 3157  -0.283   3.202   3.211
  107ST     H0S 3158  -0.385   3.164   3.211
  107ST     H0T 3159  -0.222   3.112   3.216
  107ST     C0U 3160  -0.261   3.276   3.349
  107ST     H0V 3161  -0.250   3.383   3.329
  107ST     H0W 3162  -0.354   3.275   3.408
  107ST     C0X 3163  -0.141   3.227   3.442
  107ST     H0Y 3164  -0.075   3.170   3.377
  107ST     H0Z 3165  -0.085   3.313   3.480
  107ST     C10 3166  -0.156   3.142   3.571
  107ST     H11 3167  -0.068   3.080   3.584
  107ST     H12 3168  -0.159   3.205   3.659
  107ST     C13 3169  -0.281   3.057   3.567
  107ST     H14 3170  -0.362   3.106   3.621
  107ST     H15 3171  -0.305   3.076   3.462
  107ST     C16 3172  -0.275   2.904   3.580
  107ST     H17 3173  -0.175   2.869   3.553
  107ST     H18 3174  -0.288   2.874   3.684
  107ST     C19 3175  -0.379   2.829   3.490
  107ST     H1A 3176  -0.330   2.739   3.456
  107ST     H1B 3177  -0.463   2.797   3.552
  107ST     C1C 3178  -0.430   2.912   3.368
  107ST     H1D 3179  -0.480   3.002   3.405
  107ST     H1E 3180  -0.340   2.941   3.315
  107ST     C1F 3181  -0.521   2.860   3.258
  107ST     H1G 3182  -0.506   2.926   3.172
  107ST     H1H 3183  -0.495   2.761   3.222
  107ST     C1I 3184  -0.668   2.872   3.292
  107ST     H1J 3185  -0.727   2.865   3.201
  107ST     H1K 3186  -0.691   2.969   3.336
  107ST     C1M 3187  -0.714   2.768   3.392
  107ST     H1N 3188  -0.821   2.786   3.392
  107ST     H1O 3189  -0.679   2.790   3.493
  107ST     C1P 3190  -0.686   2.623   3.351
  107ST     H1Q 3191  -0.763   2.562   3.398
  107ST     H1R 3192  -0.696   2.610   3.243
  107ST     C1S 3193  -0.556   2.564   3.404
  107ST     H1T 3194  -0.549   2.458   3.380
  107ST     H1U 3195  -0.548   2.575   3.512
  107ST     H1V 3196  -0.467   2.612   3.363
  108ST     H00 3197  -0.277   2.664   2.771
  108ST     C01 3198  -0.240   2.746   2.833
  108ST     H02 3199  -0.138   2.719   2.860
  108ST     H03 3200  -0.242   2.834   2.770
  108ST     C04 3201  -0.328   2.760   2.956
  108ST     C05 3202  -0.476   2.732   2.907
  108ST     H06 3203  -0.498   2.807   2.832
  108ST     H07 3204  -0.536   2.725   2.996
  108ST     C08 3205  -0.296   2.670   3.067
  108ST     O09 3206  -0.263   2.705   3.179
  108ST     O0A 3207  -0.308   2.540   3.034
  108ST     C0B 3208  -0.359   2.446   3.130
  108ST     H0C 3209  -0.423   2.502   3.198
  108ST     H0D 3210  -0.428   2.376   3.084
  108ST     C0E 3211  -0.259   2.360   3.208
  108ST     H0F 3212  -0.317   2.309   3.285
  108ST     H0G 3213  -0.189   2.424   3.262
  108ST     C0H 3214  -0.186   2.251   3.128
  108ST     H0I 3215  -0.205   2.154   3.175
  108ST     H0J 3216  -0.079   2.267   3.142
  108ST     C0K 3217  -0.216   2.239   2.976
  108ST     H0M 3218  -0.200   2.135   2.947
  108ST     H0N 3219  -0.320   2.256   2.951
  108ST     C0O 3220  -0.122   2.327   2.893
  108ST     H0P 3221  -0.027   2.274   2.881
  108ST     H0Q 3222  -0.096   2.416   2.950
  108ST     C0R 3223  -0.170   2.374   2.755
  108ST     H0S 3224  -0.085   2.416   2.701
  108ST     H0T 3225  -0.236   2.459   2.771
  108ST     C0U 3226  -0.245   2.276   2.663
  108ST     H0V 3227  -0.259   2.324   2.566
  108ST     H0W 3228  -0.347   2.264   2.702
  108ST     C0X 3229  -0.184   2.136   2.642
  108ST     H0Y 3230  -0.183   2.081   2.736
  108ST     H0Z 3231  -0.254   2.082   2.579
  108ST     C10 3232  -0.046   2.131   2.573
  108ST     H11 3233  -0.048   2.051   2.499
  108ST     H12 3234  -0.030   2.223   2.517
  108ST     C13 3235   0.073   2.107   2.667
  108ST     H14 3236   0.163   2.101   2.605
  108ST     H15 3237   0.089   2.197   2.726
  108ST     C16 3238   0.067   1.976   2.750
  108ST     H17 3239  -0.021   1.918   2.721
  108ST     H18 3240   0.149   1.911   2.717
  108ST     C19 3241   0.068   1.983   2.906
  108ST     H1A 3242  -0.036   1.986   2.938
  108ST     H1B 3243   0.103   1.888   2.945
  108ST     C1C 3244   0.143   2.098   2.978
  108ST     H1D 3245   0.175   2.179   2.911
  108ST     H1E 3246   0.069   2.145   3.043
  108ST     C1F 3247   0.260   2.061   3.069
  108ST     H1G 3248   0.269   2.140   3.144
  108ST     H1H 3249   0.238   1.971   3.127
  108ST     C1I 3250   0.396   2.053   2.996
  108ST     H1J 3251   0.477   2.050   3.070
  108ST     H1K 3252   0.411   2.146   2.941
  108ST     C1M 3253   0.410   1.934   2.901
  108ST     H1N 3254   0.500   1.946   2.841
  108ST     H1O 3255   0.328   1.939   2.829
  108ST     C1P 3256   0.413   1.798   2.971
  108ST     H1Q 3257   0.516   1.775   3.000
  108ST     H1R 3258   0.356   1.800   3.064
  108ST     C1S 3259   0.357   1.685   2.884
  108ST     H1T 3260   0.364   1.589   2.935
  108ST     H1U 3261   0.410   1.677   2.790
  108ST     H1V 3262   0.251   1.702   2.862
  109EH     H00 3263  -0.586   2.379   2.822
  109EH     C01 3264  -0.545   2.465   2.874
  109EH     H02 3265  -0.582   2.460   2.977
  109EH     H03 3266  -0.437   2.452   2.867
  109EH     C04 3267  -0.588   2.593   2.808
  109EH     C05 3268  -0.739   2.579   2.794
  109EH     H06 3269  -0.774   2.658   2.730
  109EH     H07 3270  -0.778   2.578   2.895
  109EH     C08 3271  -0.541   2.599   2.668
  109EH     O09 3272  -0.466   2.685   2.622
  109EH     O0A 3273  -0.589   2.492   2.592
  109EH     C0B 3274  -0.556   2.474   2.453
  109EH     H0C 3275  -0.450   2.450   2.449
  109EH     H0D 3276  -0.569   2.569   2.401
  109EH     C0E 3277  -0.638   2.361   2.378
  109EH     H0F 3278  -0.644   2.277   2.447
  109EH     C0G 3279  -0.782   2.405   2.349
  109EH     H0H 3280  -0.823   2.446   2.441
  109EH     H0I 3281  -0.843   2.317   2.325
  109EH     C0J 3282  -0.807   2.515   2.248
  109EH     H0K 3283  -0.837   2.603   2.305
  109EH     H0M 3284  -0.889   2.490   2.181
  109EH     H0N 3285  -0.718   2.542   2.190
  109EH     C0O 3286  -0.570   2.306   2.249
  109EH     H0P 3287  -0.535   2.388   2.187
  109EH     H0Q 3288  -0.480   2.254   2.282
  109EH     C0R 3289  -0.650   2.205   2.160
  109EH     H0S 3290  -0.702   2.131   2.220
  109EH     H0T 3291  -0.577   2.148   2.102
  109EH     C0U 3292  -0.749   2.269   2.059
  109EH     H0V 3293  -0.850   2.266   2.099
  109EH     H0W 3294  -0.724   2.375   2.045
  109EH     C0X 3295  -0.750   2.208   1.918
  109EH     H0Y 3296  -0.822   2.260   1.855
  109EH     H0Z 3297  -0.778   2.102   1.919
  109EH     H10 3298  -0.653   2.218   1.870
  110LA     H00 3299  -0.973   2.314   2.867
  110LA     C01 3300  -0.917   2.408   2.869
  110LA     H02 3301  -0.985   2.476   2.918
  110LA     H03 3302  -0.833   2.382   2.934
  110LA     C04 3303  -0.873   2.453   2.728
  110LA     C05 3304  -0.985   2.516   2.649
  110LA     H06 3305  -1.024   2.556   2.742
  110LA     H07 3306  -0.932   2.576   2.576
  110LA     C08 3307  -0.833   2.314   2.673
  110LA     O09 3308  -0.875   2.268   2.569
  110LA     O0A 3309  -0.783   2.213   2.760
  110LA     C0B 3310  -0.834   2.072   2.752
  110LA     H0C 3311  -0.942   2.078   2.742
  110LA     H0D 3312  -0.819   2.029   2.851
  110LA     C0E 3313  -0.783   1.962   2.648
  110LA     H0F 3314  -0.792   2.004   2.548
  110LA     H0G 3315  -0.677   1.945   2.664
  110LA     C0H 3316  -0.856   1.819   2.647
  110LA     H0I 3317  -0.848   1.773   2.745
  110LA     H0J 3318  -0.962   1.835   2.631
  110LA     C0K 3319  -0.808   1.712   2.541
  110LA     H0M 3320  -0.808   1.762   2.444
  110LA     H0N 3321  -0.704   1.685   2.558
  110LA     C0O 3322  -0.892   1.580   2.521
  110LA     H0P 3323  -0.997   1.598   2.546
  110LA     H0Q 3324  -0.894   1.557   2.415
  110LA     C0R 3325  -0.842   1.450   2.591
  110LA     H0S 3326  -0.744   1.422   2.553
  110LA     H0T 3327  -0.828   1.471   2.697
  110LA     C0U 3328  -0.936   1.326   2.576
  110LA     H0V 3329  -1.039   1.360   2.584
  110LA     H0W 3330  -0.929   1.282   2.477
  110LA     C0X 3331  -0.917   1.216   2.684
  110LA     H0Y 3332  -0.881   1.262   2.776
  110LA     H0Z 3333  -1.015   1.176   2.711
  110LA     C10 3334  -0.829   1.095   2.646
  110LA     H11 3335  -0.762   1.120   2.563
  110LA     H12 3336  -0.893   1.016   2.609
  110LA     C13 3337  -0.747   1.040   2.765
  110LA     H14 3338  -0.741   0.932   2.760
  110LA     H15 3339  -0.798   1.062   2.858
  110LA     C16 3340  -0.604   1.097   2.770
  110LA     H17 3341  -0.565   1.089   2.872
  110LA     H18 3342  -0.606   1.204   2.748
  110LA     C19 3343  -0.507   1.024   2.676
  110LA     H1A 3344  -0.495   0.920   2.705
  110LA     H1B 3345  -0.408   1.070   2.678
  110LA     H1C 3346  -0.542   1.026   2.573
  111ST     H00 3347  -1.193   2.383   2.368
  111ST     C01 3348  -1.109   2.422   2.426
  111ST     H02 3349  -1.057   2.328   2.448
  111ST     H03 3350  -1.047   2.480   2.357
  111ST     C04 3351  -1.155   2.495   2.555
  111ST     C05 3352  -1.269   2.597   2.529
  111ST     H06 3353  -1.347   2.579   2.601
  111ST     H07 3354  -1.284   2.556   2.430
  111ST     C08 3355  -1.214   2.381   2.633
  111ST     O09 3356  -1.159   2.328   2.728
  111ST     O0A 3357  -1.329   2.324   2.576
  111ST     C0B 3358  -1.365   2.186   2.607
  111ST     H0C 3359  -1.307   2.124   2.538
  111ST     H0D 3360  -1.330   2.156   2.705
  111ST     C0E 3361  -1.514   2.139   2.592
  111ST     H0F 3362  -1.516   2.030   2.599
  111ST     H0G 3363  -1.549   2.159   2.491
  111ST     C0H 3364  -1.620   2.192   2.690
  111ST     H0I 3365  -1.717   2.152   2.661
  111ST     H0J 3366  -1.630   2.301   2.680
  111ST     C0K 3367  -1.593   2.150   2.834
  111ST     H0M 3368  -1.687   2.132   2.887
  111ST     H0N 3369  -1.543   2.053   2.831
  111ST     C0O 3370  -1.512   2.257   2.908
  111ST     H0P 3371  -1.580   2.329   2.952
  111ST     H0Q 3372  -1.455   2.314   2.835
  111ST     C0R 3373  -1.413   2.209   3.016
  111ST     H0S 3374  -1.456   2.221   3.116
  111ST     H0T 3375  -1.333   2.283   3.013
  111ST     C0U 3376  -1.346   2.071   2.998
  111ST     H0V 3377  -1.247   2.071   3.044
  111ST     H0W 3378  -1.323   2.055   2.893
  111ST     C0X 3379  -1.425   1.949   3.051
  111ST     H0Y 3380  -1.528   1.947   3.016
  111ST     H0Z 3381  -1.379   1.861   3.006
  111ST     C10 3382  -1.422   1.927   3.204
  111ST     H11 3383  -1.431   1.820   3.223
  111ST     H12 3384  -1.324   1.953   3.243
  111ST     C13 3385  -1.531   1.998   3.285
  111ST     H14 3386  -1.506   1.984   3.390
  111ST     H15 3387  -1.527   2.106   3.274
  111ST     C16 3388  -1.673   1.940   3.265
  111ST     H17 3389  -1.665   1.837   3.229
  111ST     H18 3390  -1.720   1.926   3.363
  111ST     C19 3391  -1.770   2.016   3.171
  111ST     H1A 3392  -1.743   1.990   3.069
  111ST     H1B 3393  -1.870   1.973   3.183
  111ST     C1C 3394  -1.780   2.170   3.179
  111ST     H1D 3395  -1.685   2.220   3.202
  111ST     H1E 3396  -1.800   2.202   3.077
  111ST     C1F 3397  -1.895   2.231   3.262
  111ST     H1G 3398  -1.923   2.324   3.213
  111ST     H1H 3399  -1.985   2.169   3.254
  111ST     C1I 3400  -1.863   2.269   3.408
  111ST     H1J 3401  -1.936   2.342   3.442
  111ST     H1K 3402  -1.766   2.320   3.411
  111ST     C1M 3403  -1.861   2.152   3.508
  111ST     H1N 3404  -1.829   2.189   3.605
  111ST     H1O 3405  -1.783   2.082   3.479
  111ST     C1P 3406  -1.997   2.082   3.526
  111ST     H1Q 3407  -2.042   2.113   3.620
  111ST     H1R 3408  -2.069   2.113   3.449
  111ST     C1S 3409  -1.986   1.929   3.523
  111ST     H1T 3410  -2.084   1.882   3.538
  111ST     H1U 3411  -1.919   1.892   3.600
  111ST     H1V 3412  -1.949   1.894   3.426
  112EH     H00 3413  -1.213   2.672   2.281
  112EH     C01 3414  -1.304   2.731   2.292
  112EH     H02 3415  -1.280   2.828   2.249
  112EH     H03 3416  -1.372   2.686   2.220
  112EH     C04 3417  -1.359   2.741   2.437
  112EH     C05 3418  -1.392   2.891   2.484
  112EH     H06 3419  -1.499   2.895   2.472
  112EH     H07 3420  -1.384   2.890   2.592
  112EH     C08 3421  -1.486   2.648   2.413
  112EH     O09 3422  -1.600   2.693   2.421
  112EH     O0A 3423  -1.475   2.501   2.367
  112EH     C0B 3424  -1.559   2.423   2.266
  112EH     H0C 3425  -1.489   2.403   2.185
  112EH     H0D 3426  -1.627   2.497   2.222
  112EH     C0E 3427  -1.645   2.280   2.275
  112EH     H0F 3428  -1.682   2.275   2.378
  112EH     C0G 3429  -1.775   2.285   2.189
  112EH     H0H 3430  -1.826   2.381   2.203
  112EH     H0I 3431  -1.847   2.212   2.228
  112EH     C0J 3432  -1.762   2.255   2.037
  112EH     H0K 3433  -1.842   2.303   1.980
  112EH     H0M 3434  -1.772   2.149   2.014
  112EH     H0N 3435  -1.667   2.287   1.996
  112EH     C0O 3436  -1.582   2.136   2.238
  112EH     H0P 3437  -1.551   2.132   2.134
  112EH     H0Q 3438  -1.487   2.124   2.290
  112EH     C0R 3439  -1.665   2.001   2.267
  112EH     H0S 3440  -1.747   2.019   2.336
  112EH     H0T 3441  -1.600   1.933   2.321
  112EH     C0U 3442  -1.721   1.914   2.147
  112EH     H0V 3443  -1.806   1.963   2.100
  112EH     H0W 3444  -1.645   1.903   2.069
  112EH     C0X 3445  -1.772   1.771   2.181
  112EH     H0Y 3446  -1.814   1.723   2.092
  112EH     H0Z 3447  -1.852   1.771   2.255
  112EH     H10 3448  -1.694   1.705   2.216
  113LA     H00 3449  -1.427   3.174   2.256
  113LA     C01 3450  -1.419   3.078   2.306
  113LA     H02 3451  -1.517   3.030   2.301
  113LA     H03 3452  -1.351   3.019   2.245
  113LA     C04 3453  -1.371   3.093   2.451
  113LA     C05 3454  -1.428   3.232   2.505
  113LA     H06 3455  -1.529   3.223   2.468
  113LA     H07 3456  -1.406   3.220   2.610
  113LA     C08 3457  -1.230   3.082   2.479
  113LA     O09 3458  -1.152   3.052   2.390
  113LA     O0A 3459  -1.186   3.129   2.601
  113LA     C0B 3460  -1.206   3.076   2.731
  113LA     H0C 3461  -1.258   2.980   2.721
  113LA     H0D 3462  -1.278   3.137   2.786
  113LA     C0E 3463  -1.070   3.062   2.812
  113LA     H0F 3464  -1.073   3.141   2.887
  113LA     H0G 3465  -1.071   2.971   2.871
  113LA     C0H 3466  -0.934   3.077   2.733
  113LA     H0I 3467  -0.956   3.095   2.628
  113LA     H0J 3468  -0.889   3.171   2.767
  113LA     C0K 3469  -0.819   2.970   2.741
  113LA     H0M 3470  -0.747   3.004   2.815
  113LA     H0N 3471  -0.853   2.876   2.783
  113LA     C0O 3472  -0.738   2.946   2.605
  113LA     H0P 3473  -0.714   3.040   2.555
  113LA     H0Q 3474  -0.641   2.904   2.631
  113LA     C0R 3475  -0.795   2.847   2.498
  113LA     H0S 3476  -0.790   2.746   2.539
  113LA     H0T 3477  -0.875   2.910   2.539
  113LA     C0U 3478  -0.916   2.847   2.402
  113LA     H0V 3479  -0.939   2.946   2.363
  113LA     H0W 3480  -0.892   2.796   2.309
  113LA     C0X 3481  -1.044   2.780   2.466
  113LA     H0Y 3482  -1.123   2.822   2.405
  113LA     H0Z 3483  -1.040   2.674   2.439
  113LA     C10 3484  -1.077   2.818   2.617
  113LA     H11 3485  -1.077   2.927   2.608
  113LA     H12 3486  -0.979   2.787   2.654
  113LA     C13 3487  -1.144   2.758   2.748
  113LA     H14 3488  -1.070   2.749   2.828
  113LA     H15 3489  -1.171   2.657   2.718
  113LA     C16 3490  -1.286   2.754   2.812
  113LA     H17 3491  -1.366   2.753   2.738
  113LA     H18 3492  -1.302   2.839   2.879
  113LA     C19 3493  -1.302   2.622   2.893
  113LA     H1A 3494  -1.304   2.534   2.829
  113LA     H1B 3495  -1.396   2.618   2.949
  113LA     H1C 3496  -1.220   2.605   2.962
  114EH     H00 3497  -1.630   3.527   2.526
  114EH     C01 3498  -1.579   3.431   2.517
  114EH     H02 3499  -1.624   3.365   2.591
  114EH     H03 3500  -1.607   3.400   2.416
  114EH     C04 3501  -1.427   3.444   2.532
  114EH     C05 3502  -1.392   3.597   2.491
  114EH     H06 3503  -1.284   3.604   2.490
  114EH     H07 3504  -1.453   3.623   2.406
  114EH     C08 3505  -1.353   3.410   2.652
  114EH     O09 3506  -1.405   3.392   2.762
  114EH     O0A 3507  -1.220   3.388   2.632
  114EH     C0B 3508  -1.154   3.387   2.504
  114EH     H0C 3509  -1.217   3.408   2.418
  114EH     H0D 3510  -1.112   3.291   2.475
  114EH     C0E 3511  -1.030   3.473   2.511
  114EH     H0F 3512  -1.056   3.562   2.569
  114EH     C0G 3513  -0.918   3.401   2.590
  114EH     H0H 3514  -0.965   3.353   2.676
  114EH     H0I 3515  -0.850   3.476   2.631
  114EH     C0J 3516  -0.837   3.298   2.510
  114EH     H0K 3517  -0.768   3.247   2.577
  114EH     H0M 3518  -0.776   3.344   2.432
  114EH     H0N 3519  -0.899   3.223   2.462
  114EH     C0O 3520  -0.989   3.511   2.368
  114EH     H0P 3521  -0.883   3.538   2.366
  114EH     H0Q 3522  -1.001   3.426   2.302
  114EH     C0R 3523  -1.073   3.629   2.319
  114EH     H0S 3524  -1.078   3.704   2.398
  114EH     H0T 3525  -1.176   3.597   2.299
  114EH     C0U 3526  -1.016   3.693   2.194
  114EH     H0V 3527  -0.911   3.717   2.210
  114EH     H0W 3528  -1.020   3.623   2.111
  114EH     C0X 3529  -1.093   3.821   2.160
  114EH     H0Y 3530  -1.047   3.872   2.076
  114EH     H0Z 3531  -1.093   3.889   2.245
  114EH     H10 3532  -1.197   3.798   2.135
  115EH     H00 3533  -1.278   3.830   2.742
  115EH     C01 3534  -1.286   3.758   2.661
  115EH     H02 3535  -1.189   3.752   2.613
  115EH     H03 3536  -1.306   3.662   2.710
  115EH     C04 3537  -1.398   3.796   2.564
  115EH     C05 3538  -1.374   3.950   2.512
  115EH     H06 3539  -1.458   3.957   2.444
  115EH     H07 3540  -1.268   3.961   2.491
  115EH     C08 3541  -1.536   3.765   2.606
  115EH     O09 3542  -1.633   3.782   2.532
  115EH     O0A 3543  -1.544   3.705   2.731
  115EH     C0B 3544  -1.655   3.620   2.769
  115EH     H0C 3545  -1.626   3.518   2.746
  115EH     H0D 3546  -1.742   3.640   2.706
  115EH     C0E 3547  -1.696   3.616   2.920
  115EH     H0F 3548  -1.624   3.679   2.971
  115EH     C0G 3549  -1.837   3.676   2.937
  115EH     H0H 3550  -1.843   3.768   2.878
  115EH     H0I 3551  -1.852   3.709   3.040
  115EH     C0J 3552  -1.953   3.583   2.898
  115EH     H0K 3553  -2.041   3.640   2.868
  115EH     H0M 3554  -1.983   3.520   2.982
  115EH     H0N 3555  -1.928   3.517   2.815
  115EH     C0O 3556  -1.686   3.473   2.984
  115EH     H0P 3557  -1.761   3.407   2.941
  115EH     H0Q 3558  -1.591   3.427   2.958
  115EH     C0R 3559  -1.699   3.470   3.139
  115EH     H0S 3560  -1.764   3.550   3.174
  115EH     H0T 3561  -1.601   3.490   3.182
  115EH     C0U 3562  -1.756   3.339   3.197
  115EH     H0V 3563  -1.864   3.337   3.180
  115EH     H0W 3564  -1.716   3.252   3.146
  115EH     C0X 3565  -1.730   3.325   3.348
  115EH     H0Y 3566  -1.786   3.241   3.390
  115EH     H0Z 3567  -1.758   3.414   3.403
  115EH     H10 3568  -1.624   3.306   3.368
  116EH     H00 3569  -1.496   4.132   2.351
  116EH     C01 3570  -1.513   4.177   2.449
  116EH     H02 3571  -1.537   4.281   2.429
  116EH     H03 3572  -1.604   4.135   2.494
  116EH     C04 3573  -1.392   4.165   2.541
  116EH     C05 3574  -1.312   4.305   2.512
  116EH     H06 3575  -1.229   4.296   2.581
  116EH     H07 3576  -1.289   4.286   2.408
  116EH     C08 3577  -1.426   4.147   2.682
  116EH     O09 3578  -1.516   4.073   2.720
  116EH     O0A 3579  -1.349   4.219   2.767
  116EH     C0B 3580  -1.269   4.161   2.870
  116EH     H0C 3581  -1.252   4.237   2.947
  116EH     H0D 3582  -1.171   4.148   2.822
  116EH     C0E 3583  -1.312   4.027   2.936
  116EH     H0F 3584  -1.368   3.968   2.864
  116EH     C0G 3585  -1.188   3.942   2.970
  116EH     H0H 3586  -1.126   3.932   2.881
  116EH     H0I 3587  -1.217   3.839   2.994
  116EH     C0J 3588  -1.103   3.998   3.083
  116EH     H0K 3589  -1.000   3.966   3.069
  116EH     H0M 3590  -1.137   3.963   3.180
  116EH     H0N 3591  -1.104   4.107   3.085
  116EH     C0O 3592  -1.406   4.047   3.056
  116EH     H0P 3593  -1.350   4.078   3.144
  116EH     H0Q 3594  -1.475   4.128   3.035
  116EH     C0R 3595  -1.490   3.921   3.086
  116EH     H0S 3596  -1.433   3.830   3.067
  116EH     H0T 3597  -1.572   3.918   3.015
  116EH     C0U 3598  -1.541   3.916   3.230
  116EH     H0V 3599  -1.464   3.873   3.294
  116EH     H0W 3600  -1.560   4.017   3.268
  116EH     C0X 3601  -1.670   3.835   3.243
  116EH     H0Y 3602  -1.700   3.822   3.347
  116EH     H0Z 3603  -1.656   3.736   3.199
  116EH     H10 3604  -1.752   3.883   3.190
  117LA     H00 3605  -1.102   4.471   2.615
  117LA     C01 3606  -1.199   4.517   2.632
  117LA     H02 3607  -1.252   4.464   2.711
  117LA     H03 3608  -1.179   4.615   2.675
  117LA     C04 3609  -1.283   4.522   2.503
  117LA     C05 3610  -1.328   4.678   2.478
  117LA     H06 3611  -1.366   4.711   2.573
  117LA     H07 3612  -1.390   4.681   2.390
  117LA     C08 3613  -1.241   4.478   2.375
  117LA     O09 3614  -1.126   4.443   2.350
  117LA     O0A 3615  -1.356   4.463   2.301
  117LA     C0B 3616  -1.375   4.399   2.175
  117LA     H0C 3617  -1.397   4.472   2.098
  117LA     H0D 3618  -1.471   4.348   2.187
  117LA     C0E 3619  -1.272   4.297   2.125
  117LA     H0F 3620  -1.243   4.230   2.207
  117LA     H0G 3621  -1.322   4.233   2.052
  117LA     C0H 3622  -1.147   4.359   2.060
  117LA     H0I 3623  -1.099   4.432   2.125
  117LA     H0J 3624  -1.073   4.280   2.048
  117LA     C0K 3625  -1.171   4.427   1.924
  117LA     H0M 3626  -1.143   4.355   1.847
  117LA     H0N 3627  -1.277   4.446   1.908
  117LA     C0O 3628  -1.090   4.557   1.904
  117LA     H0P 3629  -0.997   4.555   1.960
  117LA     H0Q 3630  -1.059   4.559   1.800
  117LA     C0R 3631  -1.169   4.687   1.929
  117LA     H0S 3632  -1.137   4.763   1.857
  117LA     H0T 3633  -1.275   4.672   1.909
  117LA     C0U 3634  -1.150   4.749   2.067
  117LA     H0V 3635  -1.071   4.696   2.122
  117LA     H0W 3636  -1.115   4.852   2.061
  117LA     C0X 3637  -1.276   4.741   2.151
  117LA     H0Y 3638  -1.304   4.637   2.162
  117LA     H0Z 3639  -1.238   4.763   2.251
  117LA     C10 3640  -1.402   4.824   2.111
  117LA     H11 3641  -1.440   4.786   2.016
  117LA     H12 3642  -1.370   4.926   2.090
  117LA     C13 3643  -1.518   4.822   2.215
  117LA     H14 3644  -1.495   4.878   2.305
  117LA     H15 3645  -1.530   4.719   2.249
  117LA     C16 3646  -1.660   4.860   2.169
  117LA     H17 3647  -1.725   4.858   2.256
  117LA     H18 3648  -1.696   4.782   2.103
  117LA     C19 3649  -1.679   4.996   2.101
  117LA     H1A 3650  -1.678   5.078   2.172
  117LA     H1B 3651  -1.777   5.000   2.053
  117LA     H1C 3652  -1.604   5.013   2.023
  118ST     H00 3653  -1.072   4.773   2.421
  118ST     C01 3654  -1.120   4.841   2.491
  118ST     H02 3655  -1.122   4.792   2.588
  118ST     H03 3656  -1.055   4.926   2.512
  118ST     C04 3657  -1.262   4.883   2.449
  118ST     C05 3658  -1.258   4.992   2.326
  118ST     H06 3659  -1.354   5.027   2.362
  118ST     H07 3660  -1.170   5.041   2.365
  118ST     C08 3661  -1.314   4.960   2.572
  118ST     O09 3662  -1.432   4.988   2.586
  118ST     O0A 3663  -1.217   5.001   2.675
  118ST     C0B 3664  -1.173   5.137   2.723
  118ST     H0C 3665  -1.075   5.114   2.766
  118ST     H0D 3666  -1.148   5.198   2.637
  118ST     C0E 3667  -1.238   5.234   2.835
  118ST     H0F 3668  -1.305   5.180   2.901
  118ST     H0G 3669  -1.297   5.305   2.777
  118ST     C0H 3670  -1.143   5.332   2.921
  118ST     H0I 3671  -1.093   5.397   2.849
  118ST     H0J 3672  -1.061   5.276   2.965
  118ST     C0K 3673  -1.194   5.433   3.034
  118ST     H0M 3674  -1.109   5.495   3.063
  118ST     H0N 3675  -1.263   5.509   2.996
  118ST     C0O 3676  -1.252   5.378   3.168
  118ST     H0P 3677  -1.204   5.282   3.188
  118ST     H0Q 3678  -1.358   5.354   3.156
  118ST     C0R 3679  -1.237   5.458   3.301
  118ST     H0S 3680  -1.280   5.398   3.381
  118ST     H0T 3681  -1.299   5.548   3.300
  118ST     C0U 3682  -1.094   5.498   3.350
  118ST     H0V 3683  -1.096   5.513   3.457
  118ST     H0W 3684  -1.073   5.596   3.309
  118ST     C0X 3685  -0.976   5.406   3.312
  118ST     H0Y 3686  -0.978   5.380   3.206
  118ST     H0Z 3687  -0.886   5.466   3.324
  118ST     C10 3688  -0.953   5.279   3.398
  118ST     H11 3689  -0.853   5.242   3.379
  118ST     H12 3690  -0.953   5.305   3.503
  118ST     C13 3691  -1.052   5.164   3.370
  118ST     H14 3692  -1.045   5.091   3.451
  118ST     H15 3693  -1.154   5.202   3.377
  118ST     C16 3694  -1.023   5.090   3.237
  118ST     H17 3695  -0.959   5.153   3.174
  118ST     H18 3696  -0.959   5.005   3.260
  118ST     C19 3697  -1.141   5.044   3.149
  118ST     H1A 3698  -1.160   5.118   3.071
  118ST     H1B 3699  -1.110   4.959   3.088
  118ST     C1C 3700  -1.277   5.015   3.216
  118ST     H1D 3701  -1.273   5.021   3.325
  118ST     H1E 3702  -1.347   5.093   3.186
  118ST     C1F 3703  -1.338   4.880   3.175
  118ST     H1G 3704  -1.446   4.886   3.187
  118ST     H1H 3705  -1.323   4.862   3.068
  118ST     C1I 3706  -1.287   4.762   3.261
  118ST     H1J 3707  -1.347   4.673   3.238
  118ST     H1K 3708  -1.308   4.785   3.365
  118ST     C1M 3709  -1.138   4.729   3.246
  118ST     H1N 3710  -1.109   4.658   3.324
  118ST     H1O 3711  -1.079   4.818   3.268
  118ST     C1P 3712  -1.099   4.670   3.108
  118ST     H1Q 3713  -1.107   4.562   3.113
  118ST     H1R 3714  -1.170   4.702   3.032
  118ST     C1S 3715  -0.958   4.710   3.062
  118ST     H1T 3716  -0.932   4.661   2.969
  118ST     H1U 3717  -0.883   4.684   3.136
  118ST     H1V 3718  -0.951   4.817   3.044
  119EH     H00 3719  -1.426   5.130   2.084
  119EH     C01 3720  -1.420   5.163   2.187
  119EH     H02 3721  -1.467   5.261   2.200
  119EH     H03 3722  -1.484   5.098   2.246
  119EH     C04 3723  -1.274   5.177   2.221
  119EH     C05 3724  -1.212   5.244   2.090
  119EH     H06 3725  -1.126   5.300   2.125
  119EH     H07 3726  -1.184   5.154   2.038
  119EH     C08 3727  -1.261   5.274   2.336
  119EH     O09 3728  -1.307   5.251   2.448
  119EH     O0A 3729  -1.203   5.402   2.310
  119EH     C0B 3730  -1.208   5.513   2.406
  119EH     H0C 3731  -1.159   5.487   2.500
  119EH     H0D 3732  -1.313   5.524   2.434
  119EH     C0E 3733  -1.155   5.653   2.353
  119EH     H0F 3734  -1.157   5.641   2.245
  119EH     C0G 3735  -1.251   5.775   2.380
  119EH     H0H 3736  -1.354   5.742   2.391
  119EH     H0I 3737  -1.252   5.837   2.290
  119EH     C0J 3738  -1.218   5.873   2.496
  119EH     H0K 3739  -1.294   5.951   2.503
  119EH     H0M 3740  -1.124   5.925   2.482
  119EH     H0N 3741  -1.215   5.823   2.593
  119EH     C0O 3742  -1.007   5.691   2.389
  119EH     H0P 3743  -1.002   5.727   2.492
  119EH     H0Q 3744  -0.944   5.602   2.388
  119EH     C0R 3745  -0.947   5.798   2.293
  119EH     H0S 3746  -1.024   5.870   2.266
  119EH     H0T 3747  -0.920   5.750   2.199
  119EH     C0U 3748  -0.827   5.881   2.346
  119EH     H0V 3749  -0.848   5.986   2.330
  119EH     H0W 3750  -0.816   5.870   2.454
  119EH     C0X 3751  -0.695   5.850   2.275
  119EH     H0Y 3752  -0.615   5.915   2.311
  119EH     H0Z 3753  -0.702   5.866   2.168
  119EH     H10 3754  -0.665   5.746   2.292
  120EH     H00 3755  -1.046   5.411   1.806
  120EH     C01 3756  -1.080   5.354   1.893
  120EH     H02 3757  -1.035   5.255   1.880
  120EH     H03 3758  -1.034   5.408   1.975
  120EH     C04 3759  -1.232   5.349   1.911
  120EH     C05 3760  -1.267   5.482   1.834
  120EH     H06 3761  -1.373   5.503   1.843
  120EH     H07 3762  -1.200   5.562   1.858
  120EH     C08 3763  -1.312   5.241   1.856
  120EH     O09 3764  -1.267   5.131   1.825
  120EH     O0A 3765  -1.444   5.270   1.845
  120EH     C0B 3766  -1.516   5.335   1.949
  120EH     H0C 3767  -1.452   5.379   2.025
  120EH     H0D 3768  -1.565   5.248   1.991
  120EH     C0E 3769  -1.624   5.437   1.907
  120EH     H0F 3770  -1.625   5.442   1.798
  120EH     C0G 3771  -1.759   5.381   1.950
  120EH     H0H 3772  -1.773   5.285   1.901
  120EH     H0I 3773  -1.840   5.445   1.914
  120EH     C0J 3774  -1.768   5.363   2.103
  120EH     H0K 3775  -1.841   5.287   2.131
  120EH     H0M 3776  -1.794   5.457   2.151
  120EH     H0N 3777  -1.675   5.331   2.150
  120EH     C0O 3778  -1.601   5.580   1.966
  120EH     H0P 3779  -1.634   5.584   2.070
  120EH     H0Q 3780  -1.496   5.605   1.975
  120EH     C0R 3781  -1.669   5.693   1.886
  120EH     H0S 3782  -1.739   5.652   1.812
  120EH     H0T 3783  -1.593   5.745   1.828
  120EH     C0U 3784  -1.744   5.793   1.975
  120EH     H0V 3785  -1.829   5.743   2.022
  120EH     H0W 3786  -1.680   5.826   2.056
  120EH     C0X 3787  -1.794   5.915   1.897
  120EH     H0Y 3788  -1.853   5.980   1.961
  120EH     H0Z 3789  -1.856   5.886   1.812
  120EH     H10 3790  -1.710   5.974   1.859
  121LA     H00 3791  -1.497   5.567   1.677
  121LA     C01 3792  -1.432   5.498   1.623
  121LA     H02 3793  -1.454   5.396   1.652
  121LA     H03 3794  -1.459   5.501   1.517
  121LA     C04 3795  -1.286   5.535   1.641
  121LA     C05 3796  -1.265   5.659   1.550
  121LA     H06 3797  -1.168   5.700   1.572
  121LA     H07 3798  -1.240   5.612   1.456
  121LA     C08 3799  -1.202   5.429   1.584
  121LA     O09 3800  -1.233   5.311   1.576
  121LA     O0A 3801  -1.085   5.476   1.534
  121LA     C0B 3802  -1.027   5.420   1.416
  121LA     H0C 3803  -1.044   5.312   1.412
  121LA     H0D 3804  -0.920   5.433   1.424
  121LA     C0E 3805  -1.074   5.487   1.283
  121LA     H0F 3806  -1.072   5.595   1.292
  121LA     H0G 3807  -0.999   5.463   1.207
  121LA     C0H 3808  -1.211   5.439   1.229
  121LA     H0I 3809  -1.217   5.331   1.242
  121LA     H0J 3810  -1.293   5.479   1.288
  121LA     C0K 3811  -1.234   5.473   1.079
  121LA     H0M 3812  -1.245   5.581   1.065
  121LA     H0N 3813  -1.147   5.447   1.020
  121LA     C0O 3814  -1.356   5.402   1.019
  121LA     H0P 3815  -1.446   5.421   1.079
  121LA     H0Q 3816  -1.378   5.445   0.921
  121LA     C0R 3817  -1.332   5.250   1.001
  121LA     H0S 3818  -1.336   5.225   0.895
  121LA     H0T 3819  -1.230   5.226   1.031
  121LA     C0U 3820  -1.431   5.162   1.079
  121LA     H0V 3821  -1.450   5.207   1.176
  121LA     H0W 3822  -1.527   5.157   1.028
  121LA     C0X 3823  -1.375   5.021   1.105
  121LA     H0Y 3824  -1.275   5.031   1.149
  121LA     H0Z 3825  -1.435   4.972   1.181
  121LA     C10 3826  -1.371   4.931   0.980
  121LA     H11 3827  -1.379   4.990   0.889
  121LA     H12 3828  -1.459   4.867   0.981
  121LA     C13 3829  -1.245   4.842   0.974
  121LA     H14 3830  -1.268   4.748   0.924
  121LA     H15 3831  -1.215   4.814   1.075
  121LA     C16 3832  -1.127   4.909   0.902
  121LA     H17 3833  -1.035   4.858   0.928
  121LA     H18 3834  -1.115   5.012   0.936
  121LA     C19 3835  -1.141   4.907   0.749
  121LA     H1A 3836  -1.149   4.805   0.711
  121LA     H1B 3837  -1.055   4.952   0.700
  121LA     H1C 3838  -1.229   4.962   0.715
  122EH     H00 3839  -1.529   5.667   1.387
  122EH     C01 3840  -1.489   5.750   1.444
  122EH     H02 3841  -1.549   5.839   1.420
  122EH     H03 3842  -1.506   5.738   1.551
  122EH     C04 3843  -1.343   5.777   1.416
  122EH     C05 3844  -1.316   5.783   1.266
  122EH     H06 3845  -1.215   5.816   1.250
  122EH     H07 3846  -1.352   5.692   1.221
  122EH     C08 3847  -1.302   5.905   1.476
  122EH     O09 3848  -1.314   6.013   1.419
  122EH     O0A 3849  -1.247   5.900   1.598
  122EH     C0B 3850  -1.176   6.014   1.647
  122EH     H0C 3851  -1.173   6.011   1.756
  122EH     H0D 3852  -1.229   6.106   1.622
  122EH     C0E 3853  -1.033   6.016   1.588
  122EH     H0F 3854  -1.042   5.989   1.483
  122EH     C0G 3855  -0.970   6.157   1.588
  122EH     H0H 3856  -1.036   6.226   1.535
  122EH     H0I 3857  -0.878   6.157   1.529
  122EH     C0J 3858  -0.938   6.216   1.727
  122EH     H0K 3859  -0.911   6.321   1.719
  122EH     H0M 3860  -0.853   6.165   1.774
  122EH     H0N 3861  -1.023   6.209   1.795
  122EH     C0O 3862  -0.944   5.910   1.658
  122EH     H0P 3863  -0.911   5.948   1.755
  122EH     H0Q 3864  -1.005   5.823   1.681
  122EH     C0R 3865  -0.824   5.862   1.575
  122EH     H0S 3866  -0.781   5.944   1.517
  122EH     H0T 3867  -0.860   5.790   1.502
  122EH     C0U 3868  -0.715   5.800   1.663
  122EH     H0V 3869  -0.662   5.880   1.715
  122EH     H0W 3870  -0.761   5.739   1.741
  122EH     C0X 3871  -0.616   5.714   1.585
  122EH     H0Y 3872  -0.540   5.673   1.651
  122EH     H0Z 3873  -0.567   5.770   1.506
  122EH     H10 3874  -0.667   5.629   1.539
  123LA     H00 3875  -1.570   5.786   1.148
  123LA     C01 3876  -1.527   5.886   1.149
  123LA     H02 3877  -1.579   5.948   1.076
  123LA     H03 3878  -1.549   5.937   1.242
  123LA     C04 3879  -1.378   5.888   1.120
  123LA     C05 3880  -1.354   5.853   0.978
  123LA     H06 3881  -1.396   5.756   0.954
  123LA     H07 3882  -1.250   5.871   0.952
  123LA     C08 3883  -1.316   6.021   1.140
  123LA     O09 3884  -1.198   6.047   1.117
  123LA     O0A 3885  -1.410   6.117   1.171
  123LA     C0B 3886  -1.420   6.252   1.119
  123LA     H0C 3887  -1.485   6.246   1.031
  123LA     H0D 3888  -1.479   6.309   1.191
  123LA     C0E 3889  -1.296   6.336   1.080
  123LA     H0F 3890  -1.233   6.281   1.011
  123LA     H0G 3891  -1.331   6.422   1.023
  123LA     C0H 3892  -1.215   6.387   1.201
  123LA     H0I 3893  -1.238   6.325   1.287
  123LA     H0J 3894  -1.109   6.367   1.180
  123LA     C0K 3895  -1.231   6.538   1.231
  123LA     H0M 3896  -1.145   6.590   1.190
  123LA     H0N 3897  -1.317   6.581   1.180
  123LA     C0O 3898  -1.241   6.571   1.382
  123LA     H0P 3899  -1.170   6.512   1.439
  123LA     H0Q 3900  -1.209   6.674   1.395
  123LA     C0R 3901  -1.383   6.559   1.439
  123LA     H0S 3902  -1.399   6.640   1.510
  123LA     H0T 3903  -1.457   6.574   1.360
  123LA     C0U 3904  -1.412   6.426   1.511
  123LA     H0V 3905  -1.395   6.343   1.442
  123LA     H0W 3906  -1.341   6.411   1.593
  123LA     C0X 3907  -1.556   6.417   1.563
  123LA     H0Y 3908  -1.624   6.446   1.482
  123LA     H0Z 3909  -1.580   6.313   1.584
  123LA     C10 3910  -1.583   6.500   1.690
  123LA     H11 3911  -1.502   6.571   1.708
  123LA     H12 3912  -1.581   6.433   1.775
  123LA     C13 3913  -1.718   6.574   1.687
  123LA     H14 3914  -1.752   6.592   1.789
  123LA     H15 3915  -1.793   6.509   1.643
  123LA     C16 3916  -1.713   6.708   1.611
  123LA     H17 3917  -1.814   6.737   1.585
  123LA     H18 3918  -1.660   6.696   1.517
  123LA     C19 3919  -1.649   6.821   1.693
  123LA     H1A 3920  -1.705   6.840   1.785
  123LA     H1B 3921  -1.648   6.914   1.637
  123LA     H1C 3922  -1.546   6.799   1.721
  124LA     H00 3923  -1.598   5.835   0.893
  124LA     C01 3924  -1.565   5.910   0.821
  124LA     H02 3925  -1.602   5.874   0.725
  124LA     H03 3926  -1.622   6.001   0.840
  124LA     C04 3927  -1.412   5.928   0.821
  124LA     C05 3928  -1.357   5.876   0.698
  124LA     H06 3929  -1.335   5.965   0.641
  124LA     H07 3930  -1.254   5.848   0.716
  124LA     C08 3931  -1.372   6.075   0.824
  124LA     O09 3932  -1.255   6.111   0.811
  124LA     O0A 3933  -1.475   6.168   0.810
  124LA     C0B 3934  -1.484   6.277   0.711
  124LA     H0C 3935  -1.587   6.311   0.722
  124LA     H0D 3936  -1.482   6.231   0.612
  124LA     C0E 3937  -1.398   6.410   0.704
  124LA     H0F 3938  -1.357   6.435   0.802
  124LA     H0G 3939  -1.311   6.392   0.641
  124LA     C0H 3940  -1.477   6.536   0.649
  124LA     H0I 3941  -1.555   6.502   0.581
  124LA     H0J 3942  -1.529   6.583   0.732
  124LA     C0K 3943  -1.399   6.649   0.573
  124LA     H0M 3944  -1.319   6.688   0.637
  124LA     H0N 3945  -1.349   6.609   0.485
  124LA     C0O 3946  -1.484   6.771   0.526
  124LA     H0P 3947  -1.539   6.812   0.611
  124LA     H0Q 3948  -1.419   6.851   0.494
  124LA     C0R 3949  -1.580   6.740   0.409
  124LA     H0S 3950  -1.532   6.766   0.314
  124LA     H0T 3951  -1.596   6.633   0.404
  124LA     C0U 3952  -1.718   6.811   0.414
  124LA     H0V 3953  -1.739   6.845   0.516
  124LA     H0W 3954  -1.717   6.901   0.354
  124LA     C0X 3955  -1.834   6.720   0.371
  124LA     H0Y 3956  -1.843   6.639   0.443
  124LA     H0Z 3957  -1.928   6.776   0.378
  124LA     C10 3958  -1.821   6.662   0.229
  124LA     H11 3959  -1.730   6.602   0.223
  124LA     H12 3960  -1.809   6.743   0.157
  124LA     C13 3961  -1.941   6.574   0.190
  124LA     H14 3962  -2.026   6.637   0.168
  124LA     H15 3963  -1.970   6.513   0.275
  124LA     C16 3964  -1.912   6.480   0.072
  124LA     H17 3965  -1.995   6.411   0.060
  124LA     H18 3966  -1.825   6.418   0.094
  124LA     C19 3967  -1.890   6.554  -0.061
  124LA     H1A 3968  -1.979   6.611  -0.089
  124LA     H1B 3969  -1.869   6.484  -0.141
  124LA     H1C 3970  -1.806   6.623  -0.055
  125EH     H00 3971  -1.301   5.846   0.346
  125EH     C01 3972  -1.289   5.876   0.450
  125EH     H02 3973  -1.268   5.983   0.447
  125EH     H03 3974  -1.193   5.841   0.488
  125EH     C04 3975  -1.404   5.824   0.538
  125EH     C05 3976  -1.424   5.683   0.518
  125EH     H06 3977  -1.482   5.645   0.601
  125EH     H07 3978  -1.488   5.675   0.432
  125EH     C08 3979  -1.515   5.911   0.482
  125EH     O09 3980  -1.632   5.873   0.475
  125EH     O0A 3981  -1.477   6.032   0.415
  125EH     C0B 3982  -1.553   6.096   0.307
  125EH     H0C 3983  -1.646   6.136   0.348
  125EH     H0D 3984  -1.584   6.017   0.238
  125EH     C0E 3985  -1.478   6.207   0.221
  125EH     H0F 3986  -1.383   6.163   0.192
  125EH     C0G 3987  -1.551   6.244   0.086
  125EH     H0H 3988  -1.658   6.224   0.095
  125EH     H0I 3989  -1.516   6.176   0.009
  125EH     C0J 3990  -1.538   6.388   0.028
  125EH     H0K 3991  -1.586   6.395  -0.070
  125EH     H0M 3992  -1.435   6.420   0.012
  125EH     H0N 3993  -1.586   6.463   0.090
  125EH     C0O 3994  -1.444   6.335   0.302
  125EH     H0P 3995  -1.526   6.406   0.297
  125EH     H0Q 3996  -1.438   6.310   0.408
  125EH     C0R 3997  -1.312   6.404   0.258
  125EH     H0S 3998  -1.330   6.510   0.240
  125EH     H0T 3999  -1.280   6.366   0.161
  125EH     C0U 4000  -1.197   6.389   0.359
  125EH     H0V 4001  -1.187   6.481   0.417
  125EH     H0W 4002  -1.219   6.310   0.431
  125EH     C0X 4003  -1.061   6.358   0.295
  125EH     H0Y 4004  -0.985   6.346   0.371
  125EH     H0Z 4005  -1.029   6.437   0.227
  125EH     H10 4006  -1.065   6.265   0.238
  126ST     H00 4007  -1.159   5.676   0.397
  126ST     C01 4008  -1.229   5.597   0.368
  126ST     H02 4009  -1.276   5.619   0.273
  126ST     H03 4010  -1.144   5.529   0.359
  126ST     C04 4011  -1.321   5.551   0.477
  126ST     C05 4012  -1.401   5.439   0.435
  126ST     H06 4013  -1.456   5.464   0.345
  126ST     H07 4014  -1.457   5.421   0.526
  126ST     C08 4015  -1.248   5.549   0.605
  126ST     O09 4016  -1.249   5.461   0.690
  126ST     O0A 4017  -1.177   5.665   0.618
  126ST     C0B 4018  -1.039   5.680   0.652
  126ST     H0C 4019  -1.027   5.633   0.749
  126ST     H0D 4020  -0.981   5.620   0.581
  126ST     C0E 4021  -0.984   5.829   0.660
  126ST     H0F 4022  -0.886   5.821   0.707
  126ST     H0G 4023  -1.042   5.885   0.733
  126ST     C0H 4024  -0.961   5.925   0.536
  126ST     H0I 4025  -0.909   6.013   0.575
  126ST     H0J 4026  -1.051   5.974   0.498
  126ST     C0K 4027  -0.876   5.871   0.419
  126ST     H0M 4028  -0.773   5.868   0.456
  126ST     H0N 4029  -0.903   5.768   0.398
  126ST     C0O 4030  -0.874   5.956   0.289
  126ST     H0P 4031  -0.781   5.936   0.237
  126ST     H0Q 4032  -0.869   6.063   0.313
  126ST     C0R 4033  -0.987   5.935   0.185
  126ST     H0S 4034  -0.960   5.985   0.092
  126ST     H0T 4035  -1.077   5.987   0.219
  126ST     C0U 4036  -1.027   5.790   0.154
  126ST     H0V 4037  -1.095   5.785   0.069
  126ST     H0W 4038  -1.090   5.764   0.239
  126ST     C0X 4039  -0.917   5.681   0.142
  126ST     H0Y 4040  -0.825   5.710   0.194
  126ST     H0Z 4041  -0.952   5.592   0.194
  126ST     C10 4042  -0.885   5.639  -0.002
  126ST     H11 4043  -0.826   5.548  -0.003
  126ST     H12 4044  -0.979   5.614  -0.052
  126ST     C13 4045  -0.813   5.751  -0.078
  126ST     H14 4046  -0.826   5.736  -0.186
  126ST     H15 4047  -0.864   5.844  -0.055
  126ST     C16 4048  -0.662   5.758  -0.047
  126ST     H17 4049  -0.642   5.705   0.046
  126ST     H18 4050  -0.608   5.698  -0.121
  126ST     C19 4051  -0.599   5.898  -0.035
  126ST     H1A 4052  -0.599   5.922   0.072
  126ST     H1B 4053  -0.493   5.892  -0.060
  126ST     C1C 4054  -0.662   6.020  -0.107
  126ST     H1D 4055  -0.771   6.018  -0.111
  126ST     H1E 4056  -0.642   6.105  -0.042
  126ST     C1F 4057  -0.604   6.059  -0.244
  126ST     H1G 4058  -0.622   6.166  -0.256
  126ST     H1H 4059  -0.495   6.050  -0.243
  126ST     C1I 4060  -0.667   5.991  -0.368
  126ST     H1J 4061  -0.647   6.053  -0.455
  126ST     H1K 4062  -0.776   5.992  -0.357
  126ST     C1M 4063  -0.620   5.848  -0.397
  126ST     H1N 4064  -0.678   5.809  -0.481
  126ST     H1O 4065  -0.648   5.784  -0.313
  126ST     C1P 4066  -0.470   5.834  -0.429
  126ST     H1Q 4067  -0.456   5.830  -0.537
  126ST     H1R 4068  -0.414   5.922  -0.396
  126ST     C1S 4069  -0.408   5.710  -0.363
  126ST     H1T 4070  -0.302   5.701  -0.388
  126ST     H1U 4071  -0.458   5.619  -0.396
  126ST     H1V 4072  -0.415   5.716  -0.255
  127LA     H00 4073  -1.531   5.245   0.522
  127LA     C01 4074  -1.424   5.221   0.518
  127LA     H02 4075  -1.371   5.249   0.609
  127LA     H03 4076  -1.434   5.113   0.528
  127LA     C04 4077  -1.357   5.274   0.389
  127LA     C05 4078  -1.407   5.200   0.278
  127LA     H06 4079  -1.512   5.176   0.284
  127LA     H07 4080  -1.376   5.238   0.182
  127LA     C08 4081  -1.211   5.288   0.384
  127LA     O09 4082  -1.143   5.265   0.483
  127LA     O0A 4083  -1.144   5.336   0.269
  127LA     C0B 4084  -1.172   5.347   0.127
  127LA     H0C 4085  -1.205   5.255   0.079
  127LA     H0D 4086  -1.070   5.354   0.090
  127LA     C0E 4087  -1.243   5.467   0.059
  127LA     H0F 4088  -1.196   5.561   0.089
  127LA     H0G 4089  -1.214   5.459  -0.046
  127LA     C0H 4090  -1.398   5.477   0.061
  127LA     H0I 4091  -1.437   5.438   0.155
  127LA     H0J 4092  -1.427   5.582   0.059
  127LA     C0K 4093  -1.473   5.404  -0.051
  127LA     H0M 4094  -1.459   5.459  -0.143
  127LA     H0N 4095  -1.426   5.307  -0.072
  127LA     C0O 4096  -1.625   5.385  -0.029
  127LA     H0P 4097  -1.673   5.482  -0.015
  127LA     H0Q 4098  -1.659   5.347  -0.125
  127LA     C0R 4099  -1.674   5.286   0.082
  127LA     H0S 4100  -1.615   5.195   0.075
  127LA     H0T 4101  -1.657   5.328   0.181
  127LA     C0U 4102  -1.823   5.245   0.066
  127LA     H0V 4103  -1.887   5.333   0.067
  127LA     H0W 4104  -1.832   5.202  -0.033
  127LA     C0X 4105  -1.880   5.137   0.163
  127LA     H0Y 4106  -1.802   5.093   0.225
  127LA     H0Z 4107  -1.947   5.188   0.232
  127LA     C10 4108  -1.961   5.026   0.090
  127LA     H11 4109  -2.007   5.064  -0.001
  127LA     H12 4110  -2.045   4.996   0.153
  127LA     C13 4111  -1.882   4.898   0.055
  127LA     H14 4112  -1.940   4.835  -0.013
  127LA     H15 4113  -1.870   4.838   0.146
  127LA     C16 4114  -1.743   4.922  -0.004
  127LA     H17 4115  -1.690   4.826  -0.002
  127LA     H18 4116  -1.685   4.984   0.064
  127LA     C19 4117  -1.740   4.982  -0.146
  127LA     H1A 4118  -1.725   4.906  -0.223
  127LA     H1B 4119  -1.658   5.053  -0.155
  127LA     H1C 4120  -1.832   5.034  -0.171
  128ST     H00 4121  -1.175   4.927   0.208
  128ST     C01 4122  -1.205   5.028   0.234
  128ST     H02 4123  -1.156   5.049   0.330
  128ST     H03 4124  -1.155   5.081   0.154
  128ST     C04 4125  -1.359   5.039   0.235
  128ST     C05 4126  -1.414   4.960   0.331
  128ST     H06 4127  -1.366   4.966   0.428
  128ST     H07 4128  -1.520   4.941   0.323
  128ST     C08 4129  -1.408   5.011   0.096
  128ST     O09 4130  -1.406   5.092   0.005
  128ST     O0A 4131  -1.432   4.877   0.065
  128ST     C0B 4132  -1.437   4.827  -0.072
  128ST     H0C 4133  -1.499   4.892  -0.133
  128ST     H0D 4134  -1.338   4.836  -0.115
  128ST     C0E 4135  -1.484   4.677  -0.087
  128ST     H0F 4136  -1.551   4.649  -0.005
  128ST     H0G 4137  -1.396   4.615  -0.069
  128ST     C0H 4138  -1.544   4.632  -0.225
  128ST     H0I 4139  -1.493   4.540  -0.255
  128ST     H0J 4140  -1.508   4.702  -0.301
  128ST     C0K 4141  -1.700   4.621  -0.250
  128ST     H0M 4142  -1.680   4.514  -0.250
  128ST     H0N 4143  -1.706   4.698  -0.173
  128ST     C0O 4144  -1.824   4.565  -0.170
  128ST     H0P 4145  -1.873   4.484  -0.223
  128ST     H0Q 4146  -1.901   4.642  -0.170
  128ST     C0R 4147  -1.802   4.523  -0.024
  128ST     H0S 4148  -1.899   4.520   0.025
  128ST     H0T 4149  -1.749   4.602   0.030
  128ST     C0U 4150  -1.736   4.385  -0.006
  128ST     H0V 4151  -1.682   4.357  -0.097
  128ST     H0W 4152  -1.815   4.310   0.000
  128ST     C0X 4153  -1.638   4.364   0.112
  128ST     H0Y 4154  -1.654   4.264   0.152
  128ST     H0Z 4155  -1.538   4.360   0.071
  128ST     C10 4156  -1.634   4.466   0.228
  128ST     H11 4157  -1.565   4.427   0.303
  128ST     H12 4158  -1.588   4.559   0.194
  128ST     C13 4159  -1.766   4.501   0.299
  128ST     H14 4160  -1.741   4.556   0.390
  128ST     H15 4161  -1.821   4.574   0.240
  128ST     C16 4162  -1.855   4.381   0.338
  128ST     H17 4163  -1.801   4.288   0.324
  128ST     H18 4164  -1.873   4.385   0.445
  128ST     C19 4165  -1.990   4.372   0.265
  128ST     H1A 4166  -1.972   4.348   0.160
  128ST     H1B 4167  -2.045   4.287   0.304
  128ST     C1C 4168  -2.081   4.497   0.271
  128ST     H1D 4169  -2.033   4.587   0.234
  128ST     H1E 4170  -2.161   4.479   0.199
  128ST     C1F 4171  -2.150   4.523   0.407
  128ST     H1G 4172  -2.243   4.575   0.383
  128ST     H1H 4173  -2.182   4.430   0.453
  128ST     C1I 4174  -2.075   4.616   0.505
  128ST     H1J 4175  -2.149   4.684   0.548
  128ST     H1K 4176  -2.007   4.682   0.450
  128ST     C1M 4177  -1.999   4.553   0.624
  128ST     H1N 4178  -1.985   4.632   0.697
  128ST     H1O 4179  -1.897   4.527   0.596
  128ST     C1P 4180  -2.068   4.435   0.697
  128ST     H1Q 4181  -2.059   4.451   0.804
  128ST     H1R 4182  -2.175   4.435   0.677
  128ST     C1S 4183  -2.007   4.298   0.665
  128ST     H1T 4184  -2.049   4.220   0.728
  128ST     H1U 4185  -1.899   4.298   0.681
  128ST     H1V 4186  -2.025   4.268   0.561
  129CH3n    C1 4187  -1.363   4.813   0.330
  129CH3n    H2 4188  -1.328   4.772   0.235
  129CH3n    H3 4189  -1.443   4.746   0.364
  129CH3n    H4 4190  -1.280   4.802   0.400
   5.05896   5.05896   5.05896
